/*--------------------------------*- C++ -*----------------------------------*\
| =========                 |                                                 |
| \\      /  F ield         | OpenFOAM: The Open Source CFD Toolbox           |
|  \\    /   O peration     | Version:  v2012                                 |
|   \\  /    A nd           | Website:  www.openfoam.com                      |
|    \\/     M anipulation  |                                                 |
\*---------------------------------------------------------------------------*/
FoamFile
{
    version     2.0;
    format      ascii;
    class       volScalarField;
    location    "0.0003";
    object      alpha.gas_0;
}
// * * * * * * * * * * * * * * * * * * * * * * * * * * * * * * * * * * * * * //

dimensions      [0 0 0 0 0 0 0];


internalField   nonuniform List<scalar> 
240000
(
2.42092e-164
2.72499e-164
3.39748e-164
3.91027e-164
5.35984e-164
7.2314e-164
1.3382e-163
2.51758e-163
5.55889e-163
1.63007e-162
4.08465e-162
1.08723e-161
3.00339e-161
8.09355e-161
3.72687e-160
1.13975e-159
3.50292e-159
1.24639e-158
3.89066e-158
1.25684e-157
4.06989e-157
1.39047e-156
4.34763e-156
1.35297e-155
3.24327e-155
9.72643e-155
2.78241e-154
7.47133e-154
1.86895e-153
3.24993e-153
8.11898e-153
1.9946e-152
4.42635e-152
9.80193e-152
1.83404e-151
3.69542e-151
7.06977e-151
1.24657e-150
2.14553e-150
3.38404e-150
4.98354e-150
6.92537e-150
9.34946e-150
1.20379e-149
1.51199e-149
1.84851e-149
2.43203e-149
2.86937e-149
1.87361e-149
3.60676e-149
2.01354e-149
2.82885e-149
1.9422e-149
1.13526e-149
7.81302e-150
5.22415e-150
3.50147e-150
2.33753e-150
1.44839e-150
8.65966e-151
4.43418e-151
2.12419e-151
1.05644e-151
4.92686e-152
2.25597e-152
9.89022e-153
3.113e-153
1.34499e-153
4.31561e-154
1.8056e-154
7.3625e-155
2.57331e-155
1.01273e-155
3.71701e-156
1.37527e-156
4.93021e-157
2.25395e-157
8.86903e-158
3.8456e-158
1.83646e-158
8.37252e-159
3.22039e-159
1.43534e-159
5.29424e-160
2.01044e-160
7.42118e-161
2.67935e-161
1.08947e-161
4.59767e-162
2.02318e-162
9.28099e-163
3.74331e-163
1.4087e-163
7.18866e-164
3.35561e-164
1.45788e-164
1.20399e-164
1.09048e-164
9.05526e-165
8.48436e-165
2.4731e-164
3.01143e-164
3.92639e-164
4.61213e-164
5.9086e-164
8.21358e-164
1.49257e-163
2.92827e-163
8.07583e-163
1.95844e-162
4.94325e-162
1.3312e-161
3.39416e-161
9.9073e-161
4.46468e-160
1.34473e-159
4.60905e-159
1.56387e-158
4.88283e-158
1.56609e-157
5.27829e-157
1.73843e-156
5.4507e-156
1.79313e-155
4.06947e-155
1.19144e-154
3.49054e-154
9.41555e-154
2.29647e-153
4.16921e-153
1.04826e-152
2.42366e-152
5.64524e-152
1.13853e-151
2.34017e-151
4.69524e-151
8.75982e-151
1.56844e-150
2.56788e-150
4.14997e-150
6.03909e-150
8.91323e-150
1.44345e-149
2.11271e-149
2.48653e-149
2.76004e-149
3.65428e-149
4.78407e-149
2.47144e-149
4.99158e-149
2.67061e-149
3.58753e-149
2.16871e-149
1.19072e-149
8.09067e-150
5.33048e-150
3.42593e-150
2.34981e-150
1.45044e-150
8.19629e-151
4.54533e-151
2.5172e-151
1.31125e-151
5.94571e-152
2.75774e-152
1.20212e-152
4.03887e-153
1.46866e-153
5.05543e-154
1.78028e-154
6.14234e-155
2.97462e-155
1.15136e-155
4.30726e-156
1.58902e-156
5.56004e-157
2.59834e-157
1.00112e-157
4.43723e-158
2.09179e-158
9.13959e-159
3.62017e-159
1.60542e-159
5.98211e-160
2.23903e-160
8.23661e-161
2.97423e-161
1.20716e-161
5.08639e-162
2.236e-162
1.02491e-162
3.85785e-163
1.76897e-163
7.891e-164
2.70953e-164
1.64985e-164
1.34856e-164
1.0731e-164
8.47937e-165
7.91555e-165
2.53999e-164
3.22587e-164
4.28757e-164
5.10048e-164
7.1746e-164
9.13659e-164
1.60145e-163
4.18607e-163
9.46952e-163
2.26225e-162
5.75813e-162
1.45407e-161
4.02645e-161
1.15822e-160
4.21512e-160
1.60709e-159
5.12937e-159
1.83686e-158
6.0608e-158
1.95716e-157
6.47214e-157
2.19904e-156
7.05225e-156
1.84087e-155
5.42567e-155
1.47933e-154
4.38602e-154
1.23537e-153
2.24903e-153
5.7129e-153
1.4018e-152
3.22185e-152
7.03625e-152
1.56649e-151
3.21174e-151
7.11654e-151
1.36649e-150
2.56568e-150
4.6263e-150
8.36791e-150
1.29049e-149
1.80595e-149
2.83015e-149
5.45195e-149
5.94185e-149
6.75985e-149
7.26872e-149
7.16055e-149
4.26987e-149
5.89387e-149
3.00132e-149
3.97633e-149
1.91586e-149
1.07747e-149
6.75263e-150
4.39319e-150
2.7796e-150
1.6667e-150
9.25447e-151
5.88289e-151
3.3196e-151
1.6899e-151
9.74541e-152
4.61361e-152
2.29243e-152
9.44501e-153
3.36849e-153
1.26963e-153
4.87813e-154
1.99613e-154
8.2097e-155
3.65186e-155
1.40179e-155
5.38645e-156
1.91122e-156
6.8518e-157
2.59753e-157
1.10216e-157
4.3004e-158
1.93455e-158
1.0583e-158
4.18331e-159
1.5687e-159
6.95752e-160
2.59062e-160
9.86221e-161
3.71734e-161
1.37731e-161
5.77501e-162
2.52701e-162
1.15303e-162
4.84437e-163
2.2304e-163
9.5025e-164
3.13296e-164
1.97135e-164
1.46294e-164
1.13262e-164
9.18449e-165
7.36599e-165
2.64537e-164
2.85834e-164
3.8313e-164
5.36496e-164
6.5181e-164
1.081e-163
2.6951e-163
5.15205e-163
1.0765e-162
2.60315e-162
6.73822e-162
1.71345e-161
4.79851e-161
1.35252e-160
3.71399e-160
1.06977e-159
2.99715e-159
9.67942e-159
3.22882e-158
1.23362e-157
5.78901e-157
1.77267e-156
6.72429e-156
2.11373e-155
5.89693e-155
1.68066e-154
4.22462e-154
1.05496e-153
2.86823e-153
7.80832e-153
2.05196e-152
6.30617e-152
1.62174e-151
3.45191e-151
7.56828e-151
1.51665e-150
3.28449e-150
6.01242e-150
1.55932e-149
2.56379e-149
3.52142e-149
5.11069e-149
6.98138e-149
8.96672e-149
1.10026e-148
1.25324e-148
1.20914e-148
9.56157e-149
5.7867e-149
8.2859e-149
3.64754e-149
3.16806e-149
2.53859e-149
1.68672e-149
1.05286e-149
6.92958e-150
4.27274e-150
2.51638e-150
1.40432e-150
7.69516e-151
4.01197e-151
2.03107e-151
1.00901e-151
4.68302e-152
2.12231e-152
9.52013e-153
4.02766e-153
1.71883e-153
6.94609e-154
2.89925e-154
1.36297e-154
5.95265e-155
2.16604e-155
7.86141e-156
2.55783e-156
9.0783e-157
3.13216e-157
1.15799e-157
5.01445e-158
1.87653e-158
8.69189e-159
4.50978e-159
1.8858e-159
7.09565e-160
3.14153e-160
1.18669e-160
4.60628e-161
1.78061e-161
6.80311e-162
2.95798e-162
1.34313e-162
6.17894e-163
2.56846e-163
1.27327e-163
3.87393e-164
2.30856e-164
1.47092e-164
9.95288e-165
8.08048e-165
7.11605e-165
2.20734e-164
2.74276e-164
3.71408e-164
5.13288e-164
1.1501e-163
2.21934e-163
4.09286e-163
7.81124e-163
1.77715e-162
4.27292e-162
1.12395e-161
3.19376e-161
5.1417e-161
1.29774e-160
3.91669e-160
1.29402e-159
4.39502e-159
1.45219e-158
4.77756e-158
1.51572e-157
4.90316e-157
1.64227e-156
5.00259e-156
1.64784e-155
4.82229e-155
1.51216e-154
4.63315e-154
1.54521e-153
5.57962e-153
1.52903e-152
4.09411e-152
1.00057e-151
3.57124e-151
9.97333e-151
2.17873e-150
4.52335e-150
8.99057e-150
1.66044e-149
2.90209e-149
4.87201e-149
8.55264e-149
1.23967e-148
1.71755e-148
1.78342e-148
2.02955e-148
1.77912e-148
1.74582e-148
1.12773e-148
1.58174e-148
1.20831e-148
9.13064e-149
6.12425e-149
4.5973e-149
3.21372e-149
2.22629e-149
1.45132e-149
9.79326e-150
5.57636e-150
2.99411e-150
1.58245e-150
8.79631e-151
4.92483e-151
2.38763e-151
1.14642e-151
4.89213e-152
2.08247e-152
8.93147e-153
3.40859e-153
1.38635e-153
7.4175e-154
2.89698e-154
1.20988e-154
3.9216e-155
2.26743e-155
8.02917e-156
2.49646e-156
5.75014e-157
1.44691e-157
4.88459e-158
2.34426e-158
9.7195e-159
3.98272e-159
1.77734e-159
8.88012e-160
3.33977e-160
1.35756e-160
5.74939e-161
2.28408e-161
8.33769e-162
3.59777e-162
1.62101e-162
7.63811e-163
3.83695e-163
1.77938e-163
5.19385e-164
2.68672e-164
1.56817e-164
1.16465e-164
9.39698e-165
8.23841e-165
2.03944e-164
2.23781e-164
3.00577e-164
6.26963e-164
1.40836e-163
2.42306e-163
4.69125e-163
1.03916e-162
2.3822e-162
5.90793e-162
1.57846e-161
3.36578e-161
9.08157e-161
2.38009e-160
6.12461e-160
1.96086e-159
6.46722e-159
2.12441e-158
7.33819e-158
2.39141e-157
7.52388e-157
2.53455e-156
7.982e-156
2.51178e-155
8.49756e-155
2.96333e-154
1.16311e-153
3.64824e-153
1.07105e-152
3.07121e-152
1.41353e-151
3.72942e-151
9.22122e-151
2.16914e-150
4.86605e-150
1.15079e-149
2.37573e-149
4.60214e-149
8.15729e-149
1.22274e-148
1.63093e-148
2.01407e-148
2.76691e-148
3.08789e-148
3.6886e-148
3.17243e-148
2.70759e-148
2.43723e-148
4.70006e-148
2.1355e-148
2.37195e-148
1.40443e-148
1.06579e-148
7.31642e-149
4.75751e-149
3.34955e-149
2.72666e-149
1.64359e-149
8.9349e-150
4.56221e-150
2.09577e-150
9.29379e-151
4.7692e-151
2.20622e-151
1.01149e-151
4.72353e-152
1.9454e-152
8.3385e-153
3.55573e-153
1.66442e-153
6.71585e-154
2.01913e-154
7.71469e-155
3.78358e-155
1.15104e-155
3.79381e-156
1.27451e-156
2.99569e-157
9.09757e-158
2.3901e-158
1.1684e-158
4.74293e-159
2.03993e-159
8.5973e-160
3.80916e-160
1.6188e-160
6.74874e-161
2.94073e-161
1.20269e-161
4.54325e-162
2.04104e-162
9.64051e-163
4.56497e-163
1.98707e-163
9.66162e-164
3.32205e-164
1.97024e-164
1.38993e-164
1.11684e-164
9.7334e-165
1.91936e-164
2.45497e-164
3.22413e-164
7.45731e-164
1.51691e-163
2.91153e-163
5.63321e-163
1.21935e-162
2.91121e-162
7.70804e-162
2.08068e-161
4.25214e-161
1.46072e-160
3.15098e-160
9.03782e-160
2.80072e-159
9.33019e-159
3.15837e-158
1.12452e-157
3.78722e-157
1.35291e-156
4.29061e-156
1.47304e-155
5.04439e-155
1.7146e-154
7.05142e-154
2.59451e-153
7.56713e-153
2.28707e-152
1.1638e-151
3.25537e-151
8.70011e-151
2.42597e-150
6.11973e-150
1.45016e-149
3.16247e-149
6.48583e-149
9.63589e-149
1.63499e-148
2.46962e-148
4.03888e-148
5.41377e-148
5.9299e-148
6.76612e-148
7.50591e-148
9.02081e-148
7.06101e-148
6.93365e-148
8.0001e-148
5.30288e-148
4.88228e-148
4.00209e-148
2.66649e-148
1.8995e-148
1.31656e-148
7.82694e-149
6.37479e-149
3.69063e-149
2.08621e-149
1.0643e-149
5.13871e-150
2.4909e-150
1.18407e-150
4.56617e-151
1.95094e-151
8.84545e-152
3.76927e-152
1.58774e-152
6.50287e-153
3.5094e-153
1.29991e-153
4.57431e-154
1.36989e-154
6.58097e-155
2.09674e-155
6.22369e-156
2.1293e-156
5.80949e-157
1.63143e-157
4.68449e-158
1.21305e-158
6.24799e-159
2.40473e-159
1.02377e-159
4.09312e-160
1.72618e-160
8.12252e-161
3.16925e-161
1.57338e-161
6.75336e-162
2.64764e-162
1.24553e-162
6.18671e-163
2.9505e-163
1.2343e-163
4.09841e-164
2.49435e-164
1.8351e-164
1.40102e-164
1.25021e-164
1.96334e-164
2.53369e-164
4.9435e-164
9.85351e-164
1.60618e-163
3.27661e-163
6.57771e-163
1.54177e-162
3.68908e-162
9.53476e-162
2.63599e-161
6.32954e-161
1.94558e-160
4.35469e-160
1.40693e-159
4.30991e-159
1.45539e-158
4.94023e-158
1.72557e-157
6.37224e-157
2.36953e-156
8.03758e-156
2.79555e-155
9.75427e-155
3.87437e-154
1.73041e-153
5.76872e-153
2.08162e-152
9.46687e-152
2.85076e-151
8.28515e-151
2.58771e-150
6.94526e-150
1.76009e-149
3.69483e-149
6.89134e-149
1.2791e-148
2.5261e-148
4.72738e-148
7.48241e-148
9.46585e-148
1.21166e-147
1.77525e-147
2.34542e-147
2.71195e-147
2.41343e-147
2.31322e-147
2.17961e-147
2.20834e-147
1.79049e-147
1.53562e-147
1.1511e-147
8.06536e-148
5.85341e-148
4.36542e-148
2.27591e-148
1.24196e-148
7.24848e-149
4.21309e-149
3.10652e-149
1.62585e-149
6.02257e-150
2.70186e-150
1.35124e-150
5.50056e-151
1.80817e-151
7.8372e-152
3.06428e-152
1.32063e-152
6.68205e-153
2.58293e-153
8.67735e-154
3.6535e-154
1.24367e-154
3.94732e-155
1.16991e-155
3.49109e-156
1.16573e-156
2.56614e-157
9.39296e-158
1.89993e-158
6.39372e-159
3.21985e-159
1.10919e-159
5.07734e-160
2.06801e-160
8.63144e-161
4.11546e-161
1.76098e-161
8.2227e-162
3.55251e-162
1.65386e-162
8.15258e-163
3.8191e-163
1.7909e-163
6.28614e-164
3.24952e-164
2.33787e-164
2.11088e-164
2.34373e-164
2.19543e-164
4.02061e-164
5.38067e-164
1.03375e-163
2.09476e-163
3.82441e-163
8.30292e-163
1.85732e-162
4.53348e-162
1.20416e-161
3.81217e-161
8.4277e-161
2.66764e-160
6.73749e-160
2.06332e-159
7.08831e-159
2.45145e-158
8.43524e-158
2.94041e-157
1.12527e-156
4.26145e-156
1.63496e-155
5.90798e-155
2.30251e-154
9.39758e-154
3.88169e-153
1.55761e-152
6.91481e-152
2.50061e-151
8.57378e-151
2.7041e-150
6.89251e-150
1.54576e-149
4.07512e-149
8.61501e-149
1.92499e-148
3.39212e-148
6.62787e-148
1.13044e-147
1.89246e-147
3.50816e-147
5.05801e-147
6.15145e-147
7.44952e-147
7.99954e-147
8.49999e-147
8.1658e-147
8.60098e-147
8.49458e-147
6.78407e-147
5.75104e-147
3.9376e-147
2.62108e-147
1.97514e-147
1.32445e-147
7.23371e-148
4.90882e-148
2.32742e-148
1.26994e-148
7.24315e-149
3.70308e-149
2.73267e-149
1.28109e-149
3.62843e-150
1.35783e-150
5.74234e-151
1.65611e-151
6.60587e-152
2.48381e-152
1.21524e-152
5.51584e-153
1.80487e-153
7.04299e-154
2.47827e-154
7.34297e-155
2.35727e-155
6.52057e-156
2.0178e-156
5.72216e-157
1.1183e-157
3.93974e-158
9.97863e-159
3.69088e-159
1.68358e-159
5.75939e-160
2.46715e-160
1.08456e-160
4.34314e-161
2.06536e-161
1.0224e-161
4.66144e-162
2.23293e-162
1.10466e-162
5.64126e-163
2.72922e-163
8.98546e-164
5.75114e-164
5.14899e-164
3.56217e-164
3.45367e-164
3.27894e-164
4.09746e-164
5.7306e-164
1.19756e-163
2.43686e-163
4.8177e-163
9.96889e-163
2.26666e-162
5.66026e-162
1.73807e-161
5.03679e-161
1.14803e-160
3.7604e-160
1.12334e-159
3.40066e-159
1.10384e-158
3.99775e-158
1.5391e-157
5.27092e-157
2.11929e-156
8.4082e-156
3.33199e-155
1.19427e-154
6.03913e-154
2.62935e-153
1.135e-152
5.34845e-152
2.07965e-151
7.00583e-151
1.92815e-150
5.34339e-150
1.57105e-149
3.45667e-149
8.89302e-149
2.22435e-148
5.3913e-148
1.34858e-147
2.70772e-147
5.12045e-147
7.75017e-147
1.23945e-146
1.84001e-146
2.45935e-146
3.14561e-146
3.75979e-146
4.18317e-146
4.56489e-146
5.21691e-146
4.73429e-146
2.9736e-146
2.00722e-146
1.45927e-146
9.41456e-147
9.63419e-147
6.00322e-147
3.5113e-147
1.95388e-147
9.81564e-148
5.00781e-148
2.61591e-148
1.2385e-148
5.45128e-149
3.32151e-149
1.43897e-149
5.46947e-150
1.25955e-150
5.21336e-151
2.14035e-151
5.48785e-152
1.95363e-152
9.12264e-153
3.83053e-153
1.22103e-153
4.44193e-154
1.65903e-154
4.5675e-155
1.2847e-155
3.76035e-156
1.18105e-156
2.56123e-157
6.51424e-158
1.7343e-158
5.86107e-159
1.94799e-159
8.91962e-160
3.15815e-160
1.35682e-160
5.4615e-161
2.16018e-161
1.17245e-161
6.39399e-162
2.69935e-162
1.44764e-162
7.25588e-163
4.08106e-163
1.74144e-163
9.59464e-164
6.85689e-164
5.37771e-164
4.6124e-164
3.45091e-164
4.65909e-164
6.58997e-164
1.25612e-163
2.85736e-163
5.71692e-163
1.20689e-162
2.80757e-162
8.13624e-162
2.26532e-161
6.77481e-161
1.67904e-160
5.43204e-160
1.93456e-159
5.9775e-159
2.02328e-158
6.91571e-158
2.60085e-157
9.8907e-157
4.19944e-156
1.74701e-155
7.02681e-155
3.48767e-154
1.63488e-153
8.36386e-153
3.59805e-152
1.50125e-151
5.19344e-151
1.6505e-150
4.71898e-150
1.29359e-149
4.12818e-149
1.41419e-148
3.68634e-148
9.40945e-148
2.32958e-147
5.12359e-147
1.03252e-146
1.96626e-146
3.55477e-146
5.6714e-146
1.07745e-145
1.69539e-145
2.17837e-145
2.32794e-145
2.8001e-145
2.81911e-145
2.63436e-145
2.32921e-145
1.63212e-145
9.1475e-146
6.20534e-146
3.64985e-146
2.82963e-146
2.13836e-146
1.33365e-146
7.28602e-147
3.81859e-147
2.02518e-147
9.45957e-148
3.89329e-148
1.71816e-148
6.8741e-149
3.8401e-149
1.4531e-149
5.73201e-150
1.23583e-150
4.66502e-151
1.67067e-151
4.37419e-152
1.49585e-152
5.69025e-153
2.37133e-153
8.07792e-154
3.07071e-154
1.04578e-154
2.75146e-155
7.53733e-156
2.09291e-156
5.70734e-157
1.15663e-157
3.43467e-158
9.23483e-159
3.08669e-159
1.06309e-159
5.05847e-160
1.85466e-160
7.62478e-161
3.20372e-161
1.30972e-161
7.71609e-162
4.00841e-162
1.86348e-162
9.79934e-163
5.82739e-163
2.63319e-163
1.36887e-163
9.42341e-164
8.53347e-164
7.2774e-164
3.92727e-164
5.37453e-164
7.62395e-164
1.31218e-163
2.92572e-163
5.29808e-163
1.23952e-162
2.93088e-162
7.68308e-162
2.63991e-161
9.28094e-161
2.92684e-160
8.42188e-160
2.97e-159
1.10722e-158
3.15435e-158
1.21243e-157
4.74117e-157
1.93916e-156
8.71602e-156
4.75718e-155
2.26175e-154
9.26979e-154
6.07725e-153
2.59409e-152
1.13701e-151
3.68878e-151
1.44016e-150
3.99838e-150
1.36147e-149
5.6511e-149
1.72669e-148
5.35472e-148
1.57127e-147
4.29505e-147
1.08915e-146
2.4391e-146
5.15756e-146
1.09886e-145
2.2963e-145
4.17363e-145
5.67368e-145
7.93006e-145
1.01114e-144
1.16956e-144
1.44137e-144
1.7239e-144
1.98325e-144
1.36833e-144
9.46937e-145
6.12151e-145
4.11569e-145
1.96328e-145
1.18364e-145
6.94184e-146
4.27532e-146
2.82631e-146
1.52332e-146
7.59542e-147
3.45148e-147
1.46939e-147
5.25453e-148
2.18668e-148
8.42371e-149
4.18415e-149
1.49044e-149
5.55712e-150
1.12494e-150
3.97129e-151
1.38259e-151
3.44659e-152
1.10638e-152
3.81207e-153
1.29932e-153
5.28436e-154
1.86104e-154
5.66578e-155
1.48312e-155
4.45934e-156
1.2275e-156
2.97255e-157
6.21281e-158
1.63803e-158
5.33759e-159
1.672e-159
6.69196e-160
2.80025e-160
1.08217e-160
4.42383e-161
1.95359e-161
8.35891e-162
5.42879e-162
2.42494e-162
1.50683e-162
9.0347e-163
4.18755e-163
2.2613e-163
1.57405e-163
1.14782e-163
1.00226e-163
4.73828e-164
6.17779e-164
8.88332e-164
1.38237e-163
2.38263e-163
6.64358e-163
1.53869e-162
3.75019e-162
1.00298e-161
2.95575e-161
9.98597e-161
3.92932e-160
1.26347e-159
4.6032e-159
1.59515e-158
4.89375e-158
2.19347e-157
8.93071e-157
4.9573e-156
2.52421e-155
1.13494e-154
6.94165e-154
4.07951e-153
1.67541e-152
7.70809e-152
2.67031e-151
1.20632e-150
4.70071e-150
1.40569e-149
6.35345e-149
2.12692e-148
7.88139e-148
2.52645e-147
7.97112e-147
2.11157e-146
5.35677e-146
1.36226e-145
3.52871e-145
7.71458e-145
1.41968e-144
2.12407e-144
3.91844e-144
7.63185e-144
9.79447e-144
1.13072e-143
1.19294e-143
9.55578e-144
8.02447e-144
6.24957e-144
6.11879e-144
4.96542e-144
2.88205e-144
1.22915e-144
6.06166e-145
2.99597e-145
1.58502e-145
8.09229e-146
4.95976e-146
2.51134e-146
1.18056e-146
4.98847e-147
1.9505e-147
7.76057e-148
2.60828e-148
9.3039e-149
4.32153e-149
1.29331e-149
5.07004e-150
9.57871e-151
3.1269e-151
1.13223e-151
2.46494e-152
8.07903e-153
2.68834e-153
8.89955e-154
3.68471e-154
1.08578e-154
3.49206e-155
8.61972e-156
2.3592e-156
5.85061e-157
1.21956e-157
3.29204e-158
8.74402e-159
2.8771e-159
9.28619e-160
4.2511e-160
1.56077e-160
6.43196e-161
2.93894e-161
1.25735e-161
5.76537e-162
4.25504e-162
2.34822e-162
1.31299e-162
6.54324e-163
3.8109e-163
2.53631e-163
1.92129e-163
1.70193e-163
5.39181e-164
7.1325e-164
1.03621e-163
1.26527e-163
2.8001e-163
5.87174e-163
1.32819e-162
3.88128e-162
1.32348e-161
4.05159e-161
1.41247e-160
5.06532e-160
1.85242e-159
6.9954e-159
2.04804e-158
1.10581e-157
5.09579e-157
2.39408e-156
1.06352e-155
5.43378e-155
4.02036e-154
1.97323e-153
1.08605e-152
4.69172e-152
2.27406e-151
8.52887e-151
4.45894e-150
1.70964e-149
7.6017e-149
3.14565e-148
1.17918e-147
3.73541e-147
1.188e-146
3.84187e-146
1.11198e-145
3.6763e-145
1.00178e-144
2.21024e-144
4.19838e-144
1.24183e-143
2.25723e-143
3.44947e-143
4.21942e-143
5.24461e-143
6.45851e-143
5.49056e-143
4.44463e-143
2.93731e-143
2.5428e-143
3.44477e-143
2.65522e-143
1.4093e-143
9.12808e-144
4.3217e-144
1.73381e-144
7.68941e-145
3.36976e-145
1.5269e-145
6.58481e-146
3.80141e-146
1.55882e-146
5.05933e-147
1.67949e-147
9.17409e-148
2.85728e-148
9.60817e-149
4.15891e-149
1.17237e-149
4.3993e-150
6.77982e-151
2.39686e-151
8.31766e-152
1.80384e-152
5.47885e-153
1.48119e-153
7.36128e-154
2.21551e-154
6.73825e-155
1.85773e-155
4.93506e-156
1.33249e-156
2.68016e-157
6.17825e-158
1.52375e-158
5.02188e-159
1.57983e-159
5.16536e-160
2.52209e-160
9.43871e-161
3.8428e-161
1.87531e-161
8.64842e-162
5.065e-162
2.88033e-162
1.93559e-162
1.02971e-162
5.76158e-163
3.79384e-163
2.95097e-163
2.4975e-163
6.86852e-164
8.2252e-164
1.18261e-163
1.49599e-163
3.40233e-163
7.14646e-163
1.64922e-162
4.27593e-162
1.37117e-161
5.55325e-161
1.92658e-160
7.53241e-160
2.68323e-159
1.27486e-158
5.10161e-158
1.95922e-157
9.60422e-157
4.68809e-156
2.36895e-155
1.96407e-154
9.63103e-154
5.52827e-153
2.99691e-152
1.38781e-151
6.86233e-151
3.15896e-150
1.5236e-149
7.55161e-149
3.4627e-148
1.45733e-147
4.20918e-147
1.60957e-146
5.88964e-146
2.0149e-145
7.29876e-145
2.20357e-144
5.88225e-144
1.71048e-143
4.56106e-143
8.7978e-143
1.43239e-142
1.96042e-142
2.70505e-142
3.15842e-142
2.79658e-142
2.71597e-142
2.1709e-142
1.89848e-142
1.73239e-142
1.65557e-142
1.17287e-142
5.73692e-143
3.14163e-143
1.91738e-143
1.05648e-143
4.03379e-144
1.77918e-144
6.60306e-145
2.64809e-145
1.03396e-145
5.01689e-146
1.69922e-146
5.44316e-147
1.92737e-147
7.21758e-148
2.94605e-148
9.1697e-149
3.74711e-149
1.00348e-149
3.51637e-150
5.36928e-151
1.8546e-151
5.96606e-152
1.30149e-152
3.94834e-153
9.35829e-154
4.50253e-154
1.23625e-154
4.0937e-155
1.01358e-155
2.53286e-156
5.9486e-157
1.19678e-157
3.17246e-158
8.5677e-159
2.71365e-159
8.71337e-160
2.93129e-160
1.52533e-160
6.16325e-161
2.59511e-161
1.33934e-161
6.80806e-162
4.37321e-162
2.83059e-162
1.75983e-162
8.47724e-163
5.54884e-163
4.26465e-163
3.6009e-163
9.55116e-164
1.11273e-163
1.37648e-163
1.76002e-163
3.40644e-163
7.58829e-163
2.06157e-162
5.52355e-162
1.63237e-161
6.00076e-161
2.77743e-160
1.06443e-159
3.22451e-159
1.90837e-158
7.70549e-158
3.64103e-157
1.81112e-156
1.20902e-155
7.62796e-155
4.2471e-154
2.60268e-153
1.48999e-152
8.41658e-152
4.07282e-151
2.23746e-150
1.05924e-149
5.96495e-149
2.84727e-148
1.26268e-147
4.1043e-147
1.79304e-146
7.4435e-146
3.37361e-145
1.32817e-144
4.22376e-144
1.45833e-143
5.83148e-143
1.3702e-142
2.84572e-142
5.3792e-142
7.9693e-142
1.03601e-141
1.20383e-141
1.6152e-141
1.69776e-141
1.3824e-141
1.27453e-141
1.45657e-141
1.62476e-141
8.0604e-142
6.13495e-142
2.62445e-142
1.45189e-142
7.94678e-143
4.63329e-143
1.97514e-143
7.84666e-144
3.54479e-144
1.20426e-144
4.61185e-145
1.71648e-145
5.73537e-146
2.1138e-146
5.61569e-147
2.03887e-147
6.58492e-148
2.78682e-148
8.17758e-149
3.14232e-149
7.81083e-150
2.51597e-150
3.75183e-151
1.38774e-151
2.87413e-152
8.2312e-153
2.03419e-153
7.4731e-154
2.75324e-154
8.14231e-155
2.19446e-155
5.01533e-156
1.36638e-156
2.9582e-157
5.79147e-158
1.61074e-158
4.7233e-159
1.48466e-159
4.9037e-160
2.07659e-160
9.20211e-161
4.13747e-161
1.92484e-161
9.29099e-162
6.68059e-162
4.18927e-162
2.61376e-162
1.29944e-162
8.30249e-163
6.34447e-163
5.24254e-163
1.1363e-163
1.34379e-163
1.24696e-163
2.06616e-163
4.04034e-163
9.29943e-163
2.17787e-162
6.2771e-162
2.18306e-161
8.31499e-161
3.13599e-160
1.27583e-159
5.01508e-159
2.93612e-158
1.36073e-157
6.77947e-157
5.25685e-156
2.96363e-155
1.72376e-154
1.08187e-153
6.65949e-153
3.97572e-152
2.3135e-151
1.31145e-150
6.57177e-150
3.39713e-149
1.92854e-148
7.86289e-148
3.41296e-147
1.5805e-146
7.51472e-146
3.77864e-145
1.66543e-144
6.97605e-144
3.58958e-143
1.12346e-142
3.06794e-142
8.19969e-142
1.57066e-141
2.90292e-141
5.01118e-141
7.36085e-141
9.8144e-141
1.42033e-140
1.45717e-140
9.86083e-141
1.44416e-140
1.28679e-140
7.18826e-141
4.67224e-141
2.9527e-141
1.42019e-141
6.91918e-142
3.43527e-142
1.98855e-142
1.07818e-142
4.67054e-143
1.38655e-143
5.63667e-144
1.58431e-144
5.98042e-145
1.73243e-145
6.08048e-146
2.49479e-146
5.80829e-147
1.99436e-147
6.1137e-148
2.37059e-148
6.76603e-149
2.09799e-149
5.74824e-150
1.25158e-150
2.58788e-151
8.99581e-152
1.78549e-152
4.65309e-153
1.23392e-153
5.5564e-154
1.48158e-154
4.5029e-155
1.14979e-155
2.64255e-156
6.65013e-157
1.05459e-157
2.98957e-158
8.13867e-159
2.5585e-159
8.20791e-160
2.78794e-160
1.50629e-160
6.10992e-161
2.6882e-161
1.44425e-161
8.74863e-162
5.31345e-162
4.12411e-162
2.11581e-162
1.22365e-162
9.31575e-163
7.83775e-163
1.27112e-163
1.63677e-163
1.43147e-163
2.39911e-163
4.80754e-163
1.11095e-162
2.74643e-162
8.12438e-162
2.83898e-161
1.00766e-160
3.98691e-160
1.72423e-159
1.00224e-158
4.61226e-158
2.38784e-157
1.8081e-156
1.03715e-155
6.34218e-155
4.13324e-154
2.62709e-153
1.62627e-152
1.01113e-151
6.14827e-151
3.2363e-150
1.56638e-149
9.40014e-149
5.317e-148
2.30444e-147
1.01113e-146
5.43358e-146
3.14377e-145
1.52481e-144
8.02697e-144
4.21076e-143
1.55697e-142
5.11897e-142
1.75072e-141
5.00754e-141
1.01675e-140
2.17777e-140
3.79609e-140
5.60714e-140
8.48778e-140
1.06853e-139
7.09651e-140
6.03986e-140
6.1062e-140
5.74912e-140
2.65911e-140
2.57188e-140
1.54228e-140
7.30797e-141
3.33955e-141
1.49183e-141
7.88965e-142
3.89946e-142
2.06741e-142
7.8634e-143
2.15427e-143
7.73008e-144
1.85586e-144
6.54829e-145
1.86999e-145
6.43367e-146
2.06469e-146
5.51295e-147
1.7499e-147
6.26047e-148
1.87284e-148
5.98036e-149
1.48518e-149
4.03225e-150
6.33882e-151
1.91715e-151
4.18368e-152
1.11006e-152
2.62268e-153
8.57966e-154
3.13011e-154
8.77377e-155
2.30184e-155
5.07139e-156
1.2989e-156
2.76566e-157
5.35523e-158
1.29036e-158
4.41821e-159
1.3808e-159
4.61808e-160
2.32307e-160
9.46326e-161
4.18311e-161
2.23098e-161
1.19505e-161
8.10483e-162
6.22435e-162
3.66009e-162
1.88162e-162
1.37676e-162
1.15805e-162
1.10751e-163
1.57236e-163
1.6432e-163
2.79104e-163
5.67999e-163
1.28071e-162
3.34568e-162
1.00426e-161
3.73212e-161
1.38834e-160
5.73627e-160
2.55077e-159
1.50884e-158
7.78332e-158
5.54189e-157
3.67172e-156
2.08204e-155
1.34347e-154
9.22359e-154
6.00497e-153
3.88582e-152
2.09306e-151
1.15546e-150
6.49353e-150
3.9576e-149
2.16229e-148
1.07115e-147
5.43068e-147
2.74364e-146
1.34756e-145
8.17861e-145
3.59563e-144
2.59983e-143
1.13066e-142
4.64052e-142
2.12339e-141
8.98308e-141
3.10299e-140
8.8393e-140
2.04401e-139
3.36661e-139
5.32359e-139
6.44654e-139
6.10538e-139
5.56905e-139
4.70996e-139
3.05523e-139
2.56304e-139
1.64809e-139
1.09102e-139
5.85553e-140
2.79877e-140
1.47595e-140
7.22847e-141
3.01616e-141
1.36636e-141
7.04661e-142
3.19602e-142
9.94894e-143
2.9175e-143
9.40667e-144
2.18277e-144
7.0785e-145
2.10085e-145
6.23116e-146
1.83127e-146
4.64291e-147
1.39809e-147
4.82548e-148
1.34071e-148
3.73072e-149
8.17642e-150
1.68484e-150
3.34547e-151
9.46378e-152
2.35266e-152
5.84719e-153
1.48109e-153
6.41039e-154
1.5792e-154
4.50457e-155
1.12307e-155
2.48438e-156
6.03016e-157
9.61919e-158
2.71979e-158
7.60556e-159
2.33593e-159
7.6523e-160
2.64865e-160
1.53679e-160
6.62902e-161
2.96013e-161
1.82907e-161
1.10527e-161
9.4049e-162
5.48017e-162
3.04162e-162
2.11538e-162
1.77275e-162
1.20813e-163
1.47231e-163
1.85142e-163
3.17781e-163
6.6421e-163
1.54276e-162
3.90461e-162
1.27144e-161
4.85371e-161
1.88831e-160
8.06296e-160
4.73902e-159
2.37056e-158
1.73893e-157
1.16077e-156
6.39358e-156
4.20998e-155
2.95483e-154
1.9362e-153
1.31267e-152
7.42667e-152
4.29661e-151
2.35859e-150
1.37228e-149
7.91374e-149
4.15984e-148
1.99768e-147
9.14682e-147
3.68632e-146
1.80582e-145
6.46726e-145
3.53775e-144
1.79813e-143
9.88922e-143
7.95534e-142
5.46875e-141
3.99804e-140
1.85445e-139
7.41017e-139
1.72318e-138
3.73187e-138
5.60698e-138
6.59988e-138
6.74395e-138
7.05619e-138
6.07626e-138
3.26091e-138
1.71125e-138
1.18442e-138
5.24477e-139
2.70832e-139
1.35123e-139
6.88142e-140
3.11264e-140
1.49479e-140
5.94079e-141
2.93665e-141
1.19066e-141
4.5596e-142
1.22104e-142
3.47387e-143
1.15773e-143
2.7757e-144
6.75061e-145
1.9709e-145
5.18318e-146
1.28823e-146
3.68855e-147
1.29249e-147
3.49525e-148
9.97239e-149
2.09379e-149
4.13419e-150
7.47211e-151
2.15577e-151
5.21969e-152
1.23451e-152
3.08588e-153
1.0652e-153
3.17445e-154
9.27245e-155
2.27491e-155
4.90863e-156
1.12783e-156
2.41769e-157
4.71093e-158
1.2837e-158
3.91115e-159
1.25955e-159
4.30331e-160
2.41243e-160
9.8891e-161
4.54502e-161
2.48174e-161
1.84754e-161
1.42437e-161
8.74859e-162
5.14773e-162
3.51399e-162
2.86278e-162
1.31204e-163
1.59452e-163
2.06256e-163
3.65828e-163
7.37469e-163
1.8118e-162
4.95815e-162
1.61016e-161
5.75771e-161
2.36362e-160
1.06369e-159
6.99643e-159
3.66022e-158
3.22397e-157
1.81086e-156
1.20357e-155
8.28173e-155
5.86454e-154
4.09251e-153
2.334e-152
1.27107e-151
6.62393e-151
4.53379e-150
2.51516e-149
1.15526e-148
4.33489e-148
1.29274e-147
2.77411e-147
4.46687e-147
3.75204e-147
4.05883e-147
2.18261e-146
2.54187e-145
6.30096e-144
1.30454e-142
2.18016e-141
3.65208e-140
6.31016e-139
3.97087e-138
1.79438e-137
4.36972e-137
8.95714e-137
9.13615e-137
1.01661e-136
1.17211e-136
1.00959e-136
3.961e-137
1.91341e-137
7.14754e-138
3.29915e-138
1.43128e-138
8.11185e-139
4.38044e-139
1.76543e-139
7.0864e-140
3.0274e-140
1.18493e-140
5.17772e-141
1.51393e-141
5.5146e-142
1.83653e-142
3.50865e-143
1.11365e-143
3.01019e-144
6.21577e-145
1.5433e-145
3.69397e-146
8.92894e-147
3.35655e-147
8.32992e-148
2.52952e-148
5.11921e-149
8.45483e-150
1.75532e-150
3.93325e-151
1.15217e-151
2.7774e-152
6.25348e-153
2.00849e-153
6.15852e-154
1.79699e-154
4.26762e-155
9.49743e-156
2.09775e-156
5.16336e-157
8.14515e-158
2.22161e-158
6.62239e-159
2.07418e-159
6.95997e-160
3.12664e-160
1.50912e-160
7.076e-161
3.72741e-161
2.70112e-161
2.15877e-161
1.31886e-161
8.66706e-162
5.58739e-162
4.79885e-162
1.55708e-163
1.8541e-163
2.40701e-163
4.15599e-163
8.54654e-163
2.04317e-162
5.94087e-162
2.00469e-161
7.48718e-161
3.21219e-160
1.82626e-159
1.1064e-158
8.04536e-158
5.13821e-157
3.16329e-156
2.24194e-155
1.60071e-154
1.13965e-153
6.15474e-153
3.53178e-152
1.95966e-151
1.27386e-150
6.29109e-150
2.18396e-149
5.3174e-149
8.1826e-149
2.36739e-149
1.33505e-149
1.51107e-149
2.91451e-149
4.52023e-149
2.60376e-149
1.72576e-151
5.64165e-150
1.53445e-148
1.96163e-146
1.04466e-141
3.54659e-139
7.939e-138
1.04416e-136
4.45469e-136
1.20618e-135
1.60149e-135
1.78071e-135
1.71133e-135
1.15742e-135
3.9204e-136
1.98174e-136
8.29218e-137
2.79202e-137
1.11065e-137
3.99077e-138
1.68906e-138
7.28362e-139
2.50767e-139
1.01621e-139
4.10064e-140
1.57122e-140
6.21189e-141
1.82467e-141
5.90663e-142
1.75443e-142
4.41173e-143
8.93648e-144
2.36569e-144
4.81439e-145
1.06399e-145
2.4897e-146
5.97579e-147
2.12876e-147
5.41423e-148
1.35265e-148
2.40145e-149
4.41802e-150
7.54647e-151
2.45947e-151
5.84035e-152
1.2232e-152
3.4899e-153
1.12402e-153
2.90154e-154
8.00779e-155
1.91361e-155
4.02081e-156
9.28191e-157
1.58909e-157
3.89167e-158
1.11417e-158
3.39171e-159
1.11872e-159
3.95846e-160
2.40091e-160
1.00431e-160
5.74775e-161
3.3753e-161
3.01368e-161
1.98099e-161
1.33575e-161
9.38797e-162
8.36774e-162
1.6583e-163
2.60178e-163
2.877e-163
4.81723e-163
9.57749e-163
2.36827e-162
7.06246e-162
2.56603e-161
9.56975e-161
4.29446e-160
2.94558e-159
1.78584e-158
1.34211e-157
7.67683e-157
5.47251e-156
3.87006e-155
2.75989e-154
1.50159e-153
1.0161e-152
5.14359e-152
2.75996e-151
1.18018e-150
3.31528e-150
5.79938e-150
2.26257e-150
1.15581e-150
3.69631e-150
6.2922e-150
4.19643e-150
9.31774e-150
1.29052e-149
1.5077e-150
6.17017e-156
3.15019e-156
1.0988e-154
1.76173e-152
1.71886e-147
5.02922e-144
1.70326e-138
2.07487e-136
3.76609e-135
1.82939e-134
3.35984e-134
4.15609e-134
3.76011e-134
1.59411e-134
6.63244e-135
3.65636e-135
1.12015e-135
2.90972e-136
9.18548e-137
2.13166e-137
8.09902e-138
2.73816e-138
1.02663e-138
3.11334e-139
1.41624e-139
5.00023e-140
1.7308e-140
5.53066e-141