/*--------------------------------*- C++ -*----------------------------------*\
| =========                 |                                                 |
| \\      /  F ield         | OpenFOAM: The Open Source CFD Toolbox           |
|  \\    /   O peration     | Version:  v2012                                 |
|   \\  /    A nd           | Website:  www.openfoam.com                      |
|    \\/     M anipulation  |                                                 |
\*---------------------------------------------------------------------------*/
FoamFile
{
    version     2.0;
    format      ascii;
    class       volScalarField;
    location    "0.0003";
    object      T;
}
// * * * * * * * * * * * * * * * * * * * * * * * * * * * * * * * * * * * * * //

dimensions      [0 0 0 1 0 0 0];


internalField   nonuniform List<scalar> 
240000
(
301.657
301.67
301.694
301.732
301.783
301.848
301.928
302.024
302.136
302.267
302.416
302.585
302.775
302.987
303.221
303.478
303.758
304.062
304.388
304.736
305.105
305.493
305.897
306.315
306.743
307.179
307.617
308.053
308.483
308.901
309.301
309.68
310.031
310.35
310.633
310.874
311.07
311.218
311.316
311.363
311.357
311.298
311.188
311.029
310.822
310.571
310.279
309.952
309.593
309.209
308.806
308.389
307.962
307.529
307.095
306.664
306.24
305.827
305.428
305.046
304.682
304.339
304.017
303.717
303.44
303.185
302.953
302.743
302.553
302.383
302.231
302.097
301.979
301.876
301.786
301.708
301.642
301.584
301.535
301.494
301.459
301.43
301.406
301.386
301.369
301.355
301.344
301.335
301.328
301.322
301.317
301.313
301.31
301.308
301.306
301.305
301.304
301.303
301.303
301.303
301.669
301.682
301.708
301.747
301.8
301.867
301.95
302.05
302.166
302.301
302.456
302.631
302.828
303.047
303.29
303.557
303.848
304.163
304.502
304.863
305.246
305.649
306.068
306.503
306.948
307.4
307.855
308.309
308.755
309.19
309.607
310.001
310.366
310.698
310.991
311.242
311.446
311.601
311.703
311.751
311.745
311.684
311.57
311.404
311.188
310.927
310.624
310.284
309.911
309.511
309.092
308.659
308.215
307.765
307.313
306.866
306.425
305.997
305.582
305.185
304.807
304.451
304.116
303.805
303.518
303.254
303.013
302.795
302.598
302.422
302.265
302.126
302.003
301.896
301.803
301.723
301.653
301.594
301.544
301.501
301.465
301.435
301.409
301.389
301.371
301.357
301.346
301.336
301.329
301.323
301.318
301.314
301.311
301.308
301.307
301.305
301.304
301.303
301.303
301.303
301.694
301.708
301.735
301.777
301.834
301.906
301.995
302.101
302.226
302.37
302.536
302.723
302.935
303.17
303.43
303.717
304.029
304.367
304.731
305.119
305.53
305.963
306.414
306.881
307.36
307.847
308.337
308.825
309.306
309.774
310.223
310.648
311.041
311.399
311.716
311.986
312.206
312.373
312.483
312.535
312.529
312.463
312.34
312.161
311.929
311.648
311.321
310.954
310.553
310.122
309.67
309.203
308.725
308.241
307.755
307.273
306.799
306.338
305.893
305.466
305.06
304.677
304.318
303.984
303.675
303.392
303.134
302.9
302.689
302.5
302.332
302.183
302.052
301.937
301.838
301.752
301.677
301.614
301.56
301.514
301.476
301.444
301.417
301.394
301.376
301.361
301.349
301.339
301.331
301.324
301.319
301.315
301.312
301.309
301.307
301.306
301.304
301.304
301.303
301.303
301.732
301.747
301.777
301.823
301.885
301.965
302.062
302.179
302.316
302.475
302.657
302.864
303.097
303.356
303.644
303.959
304.304
304.677
305.079
305.508
305.963
306.441
306.941
307.458
307.988
308.527
309.07
309.612
310.145
310.664
311.163
311.634
312.071
312.469
312.82
313.121
313.365
313.55
313.673
313.731
313.724
313.651
313.515
313.316
313.058
312.746
312.383
311.976
311.53
311.053
310.551
310.034
309.503
308.966
308.427
307.894
307.369
306.858
306.365
305.893
305.444
305.021
304.624
304.255
303.915
303.602
303.317
303.059
302.826
302.618
302.433
302.27
302.126
302
301.89
301.795
301.714
301.644
301.585
301.535
301.493
301.457
301.428
301.403
301.383
301.367
301.353
301.342
301.333
301.326
301.321
301.316
301.313
301.31
301.308
301.306
301.305
301.304
301.304
301.303
301.783
301.799
301.833
301.885
301.955
302.044
302.153
302.285
302.439
302.618
302.823
303.055
303.317
303.609
303.933
304.289
304.678
305.099
305.552
306.037
306.551
307.092
307.657
308.242
308.843
309.454
310.069
310.683
311.288
311.877
312.443
312.978
313.475
313.926
314.326
314.667
314.945
315.156
315.296
315.362
315.354
315.271
315.116
314.89
314.598
314.243
313.831
313.369
312.863
312.321
311.752
311.164
310.563
309.953
309.343
308.738
308.144
307.566
307.008
306.474
305.966
305.488
305.04
304.624
304.24
303.887
303.566
303.275
303.014
302.78
302.571
302.387
302.225
302.084
301.961
301.855
301.763
301.685
301.619
301.563
301.515
301.476
301.443
301.415
301.393
301.374
301.359
301.347
301.337
301.329
301.323
301.318
301.314
301.311
301.309
301.307
301.305
301.305
301.304
301.304
301.847
301.867
301.905
301.964
302.044
302.145
302.27
302.419
302.595
302.8
303.034
303.299
303.599
303.933
304.303
304.711
305.156
305.639
306.159
306.715
307.305
307.926
308.575
309.248
309.939
310.642
311.351
312.057
312.755
313.434
314.086
314.704
315.277
315.798
316.26
316.654
316.976
317.219
317.381
317.457
317.448
317.353
317.174
316.914
316.576
316.166
315.691
315.158
314.574
313.949
313.293
312.616
311.922
311.22
310.518
309.822
309.138
308.473
307.832
307.218
306.636
306.087
305.573
305.096
304.656
304.252
303.885
303.552
303.253
302.985
302.748
302.537
302.353
302.192
302.051
301.93
301.826
301.738
301.662
301.598
301.544
301.499
301.462
301.431
301.405
301.384
301.367
301.353
301.342
301.333
301.326
301.32
301.316
301.312
301.31
301.308
301.306
301.305
301.304
301.304
301.927
301.949
301.994
302.061
302.153
302.269
302.413
302.585
302.788
303.023
303.293
303.6
303.945
304.331
304.759
305.23
305.745
306.304
306.907
307.551
308.235
308.956
309.71
310.491
311.294
312.111
312.936
313.759
314.57
315.361
316.122
316.841
317.51
318.118
318.656
319.117
319.492
319.777
319.965
320.055
320.044
319.934
319.725
319.421
319.028
318.55
317.996
317.375
316.694
315.966
315.202
314.413
313.605
312.788
311.971
311.161
310.367
309.594
308.85
308.138
307.462
306.826
306.231
305.678
305.169
304.702
304.277
303.893
303.548
303.239
302.965
302.722
302.51
302.324
302.163
302.024
301.904
301.802
301.715
301.642
301.58
301.528
301.485
301.45
301.421
301.397
301.377
301.361
301.348
301.338
301.33
301.323
301.318
301.314
301.311
301.309
301.307
301.306
301.305
301.305
302.022
302.048
302.099
302.177
302.283
302.419
302.585
302.784
303.019
303.292
303.605
303.961
304.362
304.81
305.308
305.856
306.455
307.106
307.807
308.559
309.357
310.198
311.078
311.99
312.929
313.885
314.85
315.813
316.764
317.691
318.582
319.426
320.21
320.924
321.556
322.096
322.537
322.871
323.093
323.198
323.186
323.057
322.812
322.455
321.993
321.433
320.784
320.055
319.257
318.403
317.508
316.584
315.638
314.681
313.725
312.778
311.849
310.947
310.077
309.246
308.458
307.716
307.022
306.379
305.786
305.243
304.749
304.303
303.902
303.543
303.225
302.944
302.698
302.483
302.296
302.135
301.997
301.879
301.778
301.694
301.622
301.563
301.513
301.472
301.439
301.411
301.388
301.37
301.355
301.344
301.334
301.327
301.321
301.316
301.313
301.31
301.308
301.307
301.306
301.305
302.134
302.164
302.223
302.314
302.437
302.594
302.787
303.019
303.292
303.609
303.973
304.387
304.854
305.376
305.955
306.594
307.293
308.053
308.873
309.751
310.684
311.668
312.698
313.767
314.867
315.988
317.12
318.251
319.367
320.456
321.504
322.496
323.419
324.258
325.002
325.638
326.158
326.551
326.812
326.937
326.923
326.771
326.483
326.063
325.52
324.861
324.097
323.24
322.303
321.299
320.247
319.161
318.05
316.928
315.805
314.695
313.606
312.549
311.53
310.558
309.636
308.769
307.959
307.207
306.515
305.882
305.306
304.786
304.319
303.902
303.532
303.206
302.919
302.67
302.453
302.266
302.106
301.969
301.853
301.755
301.672
301.604
301.546
301.499
301.46
301.428
301.402
301.381
301.364
301.35
301.339
301.331
301.324
301.319
301.315
301.312
301.309
301.308
301.307
301.306
302.264
302.298
302.367
302.472
302.615
302.797
303.022
303.291
303.608
303.977
304.4
304.882
305.426
306.034
306.71
307.455
308.271
309.158
310.115
311.142
312.233
313.386
314.592
315.845
317.134
318.45
319.778
321.105
322.417
323.697
324.929
326.096
327.181
328.169
329.045
329.794
330.406
330.87
331.177
331.325
331.309
331.13
330.791
330.297
329.658
328.883
327.984
326.976
325.874
324.694
323.457
322.18
320.876
319.557
318.24
316.937
315.66
314.421
313.228
312.09
311.011
309.997
309.05
308.173
307.365
306.626
305.955
305.349
304.805
304.319
303.889
303.509
303.177
302.887
302.635
302.418
302.233
302.074
301.939
301.826
301.73
301.651
301.584
301.53
301.485
301.448
301.418
301.393
301.374
301.358
301.345
301.335
301.328
301.322
301.317
301.313
301.311
301.309
301.308
301.307
302.412
302.452
302.532
302.654
302.819
303.03
303.291
303.603
303.971
304.399
304.891
305.451
306.083
306.791
307.578
308.446
309.397
310.432
311.549
312.747
314.023
315.37
316.781
318.247
319.757
321.298
322.855
324.412
325.951
327.453
328.899
330.27
331.546
332.707
333.737
334.619
335.338
335.884
336.246
336.42
336.401
336.191
335.793
335.213
334.461
333.55
332.494
331.31
330.015
328.63
327.178
325.68
324.149
322.602
321.058
319.531
318.036
316.586
315.191
313.859
312.599
311.414
310.309
309.286
308.344
307.483
306.702
305.996
305.363
304.799
304.299
303.858
303.472
303.136
302.844
302.593
302.378
302.194
302.038
301.907
301.797
301.705
301.628
301.565
301.513
301.47
301.436
301.407
301.385
301.367
301.352
301.341
301.332
301.325
301.319
301.315
301.312
301.31
301.309
301.308
302.58
302.626
302.719
302.86
303.051
303.295
303.596
303.958
304.384
304.88
305.45
306.099
306.833
307.654
308.568
309.577
310.683
311.887
313.187
314.583
316.07
317.64
319.287
320.999
322.763
324.564
326.384
328.206
330.007
331.767
333.461
335.067
336.563
337.925
339.133
340.168
341.012
341.653
342.079
342.283
342.261
342.015
341.548
340.868
339.987
338.918
337.68
336.292
334.775
333.152
331.452
329.697
327.905
326.096
324.29
322.505
320.759
319.065
317.437
315.884
314.414
313.034
311.748
310.557
309.462
308.461
307.553
306.734
306
305.345
304.766
304.255
303.808
303.419
303.082
302.791
302.542
302.33
302.151
301.999
301.872
301.766
301.677
301.605
301.545
301.496
301.456
301.423
301.397
301.377
301.36
301.347
301.337
301.328
301.322
301.318
301.314
301.312
301.31
301.309
302.769
302.822
302.929
303.091
303.312
303.593
303.94
304.357
304.849
305.422
306.081
306.831
307.679
308.63
309.688
310.857
312.138
313.534
315.044
316.665
318.392
320.218
322.133
324.125
326.179
328.278
330.4
332.525
334.626
336.68
338.659
340.536
342.284
343.876
345.289
346.499
347.487
348.237
348.736
348.975
348.95
348.662
348.116
347.321
346.291
345.042
343.596
341.974
340.202
338.307
336.321
334.273
332.182
330.072
327.966
325.887
323.853
321.881
319.987
318.181
316.474
314.871
313.378
311.996
310.726
309.567
308.515
307.567
306.718
305.962
305.292
304.703
304.187
303.738
303.349
303.014
302.728
302.484
302.277
302.102
301.956
301.834
301.733
301.649
301.58
301.524
301.478
301.441
301.412
301.388
301.369
301.354
301.342
301.333
301.325
301.32
301.316
301.313
301.311
301.311
302.98
303.04
303.163
303.349
303.602
303.926
304.325
304.804
305.37
306.029
306.787
307.651
308.628
309.724
310.945
312.293
313.773
315.387
317.132
319.007
321.006
323.121
325.341
327.651
330.034
332.47
334.935
337.403
339.847
342.236
344.538
346.723
348.758
350.613
352.259
353.669
354.821
355.696
356.277
356.556
356.528
356.193
355.557
354.632
353.431
351.977
350.292
348.404
346.342
344.137
341.827
339.445
337.014
334.562
332.117
329.702
327.342
325.056
322.86
320.768
318.791
316.937
315.21
313.613
312.146
310.808
309.595
308.502
307.523
306.652
305.882
305.203
304.61
304.094
303.648
303.263
302.935
302.655
302.417
302.218
302.05
301.91
301.795
301.699
301.62
301.556
301.504
301.461
301.427
301.4
301.378
301.361
301.348
301.337
301.329
301.323
301.318
301.315
301.313
301.312
303.213
303.282
303.422
303.635
303.925
304.295
304.751
305.3
305.948
306.703
307.572
308.563
309.684
310.942
312.344
313.894
315.597
317.453
319.463
321.623
323.928
326.367
328.929
331.597
334.351
337.167
340.018
342.875
345.704
348.471
351.14
353.672
356.033
358.185
360.095
361.732
363.07
364.085
364.761
365.085
365.053
364.665
363.927
362.853
361.461
359.774
357.82
355.631
353.24
350.685
348.009
345.25
342.435
339.597
336.768
333.977
331.249
328.608
326.073
323.66
321.381
319.244
317.255
315.417
313.73
312.191
310.797
309.542
308.419
307.42
306.536
305.759
305.08
304.49
303.979
303.54
303.164
302.844
302.573
302.345
302.154
301.995
301.863
301.754
301.664
301.591
301.532
301.483
301.445
301.414
301.389
301.369
301.354
301.342
301.333
301.326
301.321
301.317
301.315
301.314
303.469
303.548
303.707
303.95
304.279
304.701
305.221
305.846
306.585
307.446
308.438
309.57
310.851
312.289
313.892
315.666
317.615
319.742
322.047
324.525
327.17
329.972
332.916
335.984
339.152
342.394
345.678
348.97
352.231
355.423
358.501
361.425
364.15
366.636
368.843
370.736
372.282
373.456
374.238
374.614
374.577
374.129
373.277
372.036
370.428
368.479
366.223
363.695
360.936
357.988
354.901
351.718
348.473
345.203
341.945
338.731
335.593
332.556
329.642
326.87
324.253
321.801
319.521
317.414
315.482
313.721
312.126
310.691
309.408
308.267
307.259
306.373
305.598
304.925
304.344
303.844
303.416
303.052
302.745
302.485
302.268
302.088
301.938
301.814
301.712
301.629
301.562
301.508
301.464
301.429
301.401
301.378
301.361
301.348
301.337
301.329
301.323
301.319
301.317
301.316
303.748
303.837
304.018
304.293
304.666
305.144
305.734
306.443
307.282
308.26
309.386
310.673
312.13
313.767
315.592
317.613
319.835
322.261
324.891
327.721
330.743
333.947
337.315
340.826
344.454
348.169
351.934
355.71
359.454
363.118
366.654
370.013
373.146
376.005
378.543
380.721
382.501
383.852
384.752
385.185
385.144
384.629
383.649
382.222
380.373
378.132
375.539
372.634
369.463
366.076
362.532
358.878
355.154
351.403
347.666
343.984
340.389
336.912
333.579
330.409
327.418
324.617
322.014
319.611
317.408
315.401
313.585
311.952
310.493
309.196
308.05
307.044
306.165
305.402
304.742
304.176
303.691
303.28
302.931
302.638
302.393
302.189
302.019
301.88
301.765
301.671
301.595
301.534
301.484
301.445
301.413
301.388
301.369
301.353
301.342
301.333
301.326
301.322
301.319
301.317
304.05
304.151
304.355
304.665
305.086
305.625
306.291
307.092
308.04
309.145
310.419
311.874
313.523
315.377
317.445
319.737
322.258
325.012
327.999
331.216
334.653
338.299
342.134
346.134
350.27
354.507
358.803
363.114
367.39
371.577
375.62
379.462
383.047
386.318
389.225
391.718
393.757
395.305
396.337
396.834
396.787
396.198
395.076
393.443
391.326
388.763
385.795
382.471
378.845
374.973
370.922
366.747
362.493
358.21
353.946
349.746
345.648
341.686
337.89
334.282
330.88
327.696
324.739
322.01
319.51
317.234
315.176
313.326
311.674
310.206
308.911
307.774
306.781
305.919
305.175
304.536
303.99
303.526
303.134
302.804
302.528
302.298
302.108
301.951
301.822
301.717
301.631
301.562
301.507
301.462
301.427
301.399
301.377
301.36
301.347
301.337
301.329
301.324
301.321
301.319
304.375
304.488
304.717
305.065
305.538
306.144
306.892
307.792
308.857
310.1
311.534
313.173
315.03
317.12
319.452
322.038
324.885
327.996
331.373
335.011
338.902
343.031
347.376
351.912
356.604
361.412
366.292
371.19
376.05
380.812
385.411
389.784
393.866
397.592
400.903
403.745
406.069
407.835
409.012
409.58
409.527
408.856
407.578
405.718
403.306
400.386
397.007
393.223
389.096
384.691
380.082
375.334
370.499
365.633
360.79
356.022
351.373
346.881
342.579
338.492
334.641
331.039
327.695
324.611
321.788
319.219
316.898
314.813
312.951
311.298
309.84
308.561
307.445
306.477
305.641
304.924
304.312
303.791
303.352
302.982
302.673
302.416
302.202
302.027
301.883
301.765
301.67
301.593
301.531
301.481
301.441
301.41
301.386
301.367
301.352
301.341
301.333
301.327
301.323
301.322
304.722
304.848
305.104
305.492
306.021
306.698
307.534
308.541
309.733
311.124
312.73
314.566
316.649
318.992
321.61
324.514
327.712
331.21
335.009
339.104
343.486
348.138
353.038
358.155
363.451
368.882
374.396
379.933
385.431
390.819
396.027
400.98
405.604
409.827
413.582
416.805
419.441
421.445
422.781
423.426
423.367
422.606
421.158
419.049
416.315
413.005
409.176
404.889
400.216
395.228
390.011
384.639
379.169
373.668
368.196
362.81
357.561
352.493
347.641
343.035
338.696
334.641
330.879
327.412
324.239
321.354
318.748
316.409
314.321
312.47
310.837
309.405
308.157
307.074
306.14
305.339
304.655
304.075
303.584
303.172
302.828
302.541
302.303
302.108
301.948
301.817
301.711
301.625
301.556
301.501
301.457
301.422
301.395
301.374
301.358
301.345
301.336
301.33
301.326
301.324
305.089
305.23
305.514
305.946
306.534
307.287
308.217
309.337
310.664
312.214
314.003
316.05
318.373
320.989
323.912
327.157
330.732
334.645
338.897
343.483
348.394
353.61
359.107
364.851
370.8
376.903
383.101
389.331
395.518
401.585
407.451
413.032
418.245
423.008
427.244
430.881
433.857
436.12
437.629
438.357
438.292
437.434
435.801
433.421
430.337
426.604
422.286
417.454
412.187
406.568
400.693
394.644
388.489
382.3
376.148
370.095
364.2
358.509
353.065
347.9
343.038
338.496
334.283
330.404
326.856
323.632
320.722
318.11
315.782
313.717
311.898
310.303
308.913
307.709
306.67
305.78
305.02
304.375
303.831
303.374
302.992
302.674
302.411
302.194
302.016
301.872
301.754
301.659
301.583
301.522
301.473
301.435
301.405
301.382
301.364
301.35
301.34
301.333
301.329
301.327
305.476
305.631
305.945
306.423
307.073
307.907
308.936
310.177
311.647
313.364
315.348
317.619
320.198
323.102
326.35
329.957
333.934
338.289
343.024
348.134
353.609
359.428
365.563
371.978
378.625
385.448
392.382
399.353
406.28
413.076
419.65
425.907
431.754
437.099
441.854
445.938
449.281
451.823
453.52
454.339
454.266
453.304
451.47
448.798
445.337
441.148
436.303
430.884
424.978
418.68
412.097
405.322
398.431
391.505
384.622
377.855
371.267
364.912
358.834
353.071
347.649
342.587
337.895
333.577
329.63
326.045
322.811
319.911
317.326
315.036
313.018
311.251
309.712
308.378
307.229
306.244
305.404
304.692
304.091
303.586
303.164
302.813
302.523
302.284
302.088
301.929
301.799
301.695
301.611
301.544
301.491
301.449
301.416
301.39
301.37
301.355
301.344
301.336
301.332
301.329
305.879
306.05
306.396
306.922
307.637
308.555
309.689
311.056
312.676
314.57
316.758
319.265
322.112
325.321
328.911
332.9
337.302
342.124
347.37
353.034
359.106
365.564
372.377
379.503
386.892
394.48
402.195
409.956
417.671
425.245
432.574
439.554
446.078
452.045
457.355
461.919
465.655
468.498
470.395
471.311
471.231
470.157
468.108
465.123
461.257
456.579
451.171
445.123
438.536
431.513
424.175
416.626
408.95
401.239
393.581
386.055
378.73
371.669
364.92
358.523
352.509
346.896
341.697
336.915
332.546
328.581
325.005
321.8
318.946
316.418
314.192
312.244
310.547
309.078
307.813
306.729
305.806
305.022
304.362
303.807
303.344
302.959
302.64
302.378
302.164
301.989
301.847
301.732
301.64
301.567
301.509
301.463
301.426
301.398
301.377
301.36
301.348
301.34
301.334
301.332
306.297
306.484
306.862
307.438
308.222
309.227
310.47
311.969
313.745
315.822
318.224
320.977
324.104
327.631
331.58
335.969
340.814
346.126
351.907
358.154
364.853
371.982
379.507
387.382
395.552
403.946
412.486
421.08
429.629
438.024
446.153
453.897
461.141
467.769
473.67
478.743
482.899
486.061
488.173
489.194
489.106
487.911
485.633
482.314
478.017
472.82
466.812
460.098
452.787
444.997
436.86
428.492
419.988
411.449
402.972
394.645
386.546
378.742
371.287
364.224
357.587
351.397
345.666
340.398
335.587
331.223
327.29
323.768
320.631
317.855
315.413
313.275
311.415
309.805
308.419
307.233
306.222
305.365
304.642
304.036
303.53
303.109
302.761
302.475
302.241
302.05
301.896
301.771
301.671
301.591
301.527
301.477
301.437
301.407
301.383
301.366
301.352
301.343
301.337
301.335
306.725
306.929
307.341
307.969
308.823
309.918
311.273
312.908
314.846
317.113
319.736
322.742
326.16
330.017
334.336
339.14
344.447
350.267
356.605
363.457
370.809
378.637
386.904
395.56
404.545
413.781
423.183
432.649
442.07
451.328
460.296
468.845
476.846
484.17
490.695
496.308
500.908
504.41
506.748
507.88
507.783
506.461
503.94
500.268
495.515
489.768
483.128
475.711
467.639
459.042
450.066
440.84
431.468
422.063
412.73
403.568
394.66
386.081
377.889
370.133
362.848
356.057
349.773
344
338.73
333.953
329.65
325.798
322.37
319.337
316.67
314.337
312.308
310.553
309.043
307.75
306.649
305.717
304.93
304.271
303.721
303.264
302.886
302.575
302.321
302.114
301.946
301.81
301.702
301.615
301.546
301.492
301.449
301.416
301.39
301.371
301.357
301.347
301.34
301.337
307.161
307.382
307.829
308.509
309.435
310.623
312.092
313.865
315.969
318.43
321.279
324.547
328.263
332.457
337.158
342.388
348.169
354.512
361.423
368.898
376.924
385.472
394.506
403.969
413.797
423.905
434.199
444.57
454.898
465.051
474.893
484.282
493.074
501.128
508.307
514.487
519.554
523.413
525.992
527.24
527.135
525.678
522.901
518.857
513.624
507.299
499.997
491.844
482.977
473.538
463.69
453.571
443.299
432.995
422.776
412.749
403.005
393.625
384.673
376.201
368.248
360.838
353.985
347.691
341.95
336.749
332.065
327.874
324.147
320.852
317.954
315.422
313.22
311.316
309.678
308.277
307.085
306.075
305.224
304.51
303.915
303.421
303.012
302.676
302.402
302.178
301.997
301.851
301.733
301.64
301.565
301.506
301.46
301.425
301.397
301.376
301.361
301.35
301.344
301.34
307.601
307.839
308.321
309.054
310.053
311.334
312.919
314.833
317.104
319.763
322.841
326.373
330.392
334.93
340.018
345.682
351.945
358.821
366.317
374.428
383.141
392.426
402.242
412.532
423.222
434.224
445.434
456.734
467.994
479.071
489.815
500.072
509.685
518.497
526.358
533.13
538.686
542.92
545.751
547.121
547.006
545.409
542.362
537.928
532.193
525.267
517.274
508.357
498.666
488.357
477.608
466.57
455.371
444.145
433.017
422.103
411.503
401.304
391.575
382.373
373.737
365.696
358.262
351.438
345.217
339.583
334.512
329.978
325.946
322.384
319.253
316.518
314.141
312.087
310.32
308.81
307.524
306.436
305.519
304.751
304.11
303.579
303.139
302.778
302.483
302.243
302.048
301.891
301.765
301.664
301.584
301.521
301.472
301.434
301.404
301.382
301.365
301.354
301.347
301.343
308.039
308.295
308.812
309.598
310.67
312.044
313.746
315.801
318.241
321.097
324.406
328.203
332.526
337.41
342.888
348.989
355.738
363.151
371.236
379.989
389.396
399.426
410.034
421.16
432.724
444.632
456.772
469.017
481.226
493.246
504.914
516.062
526.518
536.112
544.679
552.064
558.129
562.754
565.847
567.346
567.221
565.476
562.149
557.309
551.053
543.501
534.796
525.091
514.552
503.351
491.68
479.705
467.563
455.398
443.348
431.535
420.068
409.039
398.524
388.583
379.259
370.579
362.56
355.202
348.497
342.427
336.967
332.087
327.75
323.919
320.554
317.615
315.063
312.857
310.962
309.341
307.963
306.797
305.815
304.992
304.306
303.736
303.266
302.88
302.564
302.307
302.099
301.931
301.796
301.689
301.604
301.536
301.484
301.443
301.411
301.387
301.37
301.358
301.35
301.346
308.472
308.745
309.296
310.136
311.279
312.747
314.564
316.759
319.365
322.418
325.955
330.017
334.642
339.87
345.735
352.272
359.505
367.453
376.125
385.519
395.619
406.392
417.793
429.755
442.195
455.011
468.086
481.281
494.447
507.419
520.023
532.076
543.393
553.787
563.078
571.095
577.684
582.713
586.079
587.711
587.575
585.678
582.061
576.801
570.007
561.814
552.376
541.866
530.463
518.356
505.752
492.829
479.736
466.628
453.651
440.937
428.602
416.743
405.443
394.763
384.751
375.435
366.831
358.94
351.753
345.25
339.403
334.178
329.537
325.44
321.842
318.702
315.975
313.619
311.596
309.867
308.397
307.153
306.106
305.229
304.498
303.892
303.391
302.98
302.644
302.371
302.149
301.971
301.827
301.713
301.623
301.551
301.495
301.451
301.418
301.393
301.374
301.361
301.353
301.349
308.895
309.185
309.77
310.661
311.875
313.433
315.363
317.696
320.465
323.711
327.472
331.793
336.715
342.28
348.527
355.491
363.2
371.675
380.927
390.951
401.734
413.241
425.423
438.212
451.518
465.235
479.236
493.377
507.496
521.42
534.962
547.926
560.111
571.315
581.342
590.004
597.13
602.574
606.22
607.989
607.843
605.789
601.874
596.184
588.841
579.992
569.811
558.485
546.211
533.192
519.653
505.784
491.744
477.699
463.803
450.196
437.001
424.323
412.246
400.838
390.147
380.204
371.024
362.609
354.948
348.018
341.79
336.227
331.288
326.929
323.103
319.764
316.866
314.365
312.216
310.381
308.82
307.501
306.391
305.461
304.686
304.044
303.514
303.078
302.722
302.433
302.198
302.009
301.858
301.737
301.641
301.565
301.506
301.46
301.425
301.398
301.378
301.365
301.356
301.352
309.302
309.608
310.226
311.167
312.449
314.096
316.135
318.6
321.527
324.959
328.938
333.509
338.719
344.611
351.228
358.606
366.778
375.764
385.577
396.216
407.662
419.883
432.827
446.421
460.573
475.169
490.077
505.145
520.204
535.067
549.537
563.406
576.457
588.473
599.239
608.551
616.221
622.085
626.016
627.925
627.77
625.558
621.34
615.215
607.316
597.807
586.879
574.735
561.592
547.669
533.204
518.401
503.43
488.465
473.67
459.191
445.158
431.68
418.847
406.73
395.378
384.826
375.087
366.162
358.04
350.696
344.099
338.208
332.98
328.367
324.321
320.79
317.727
315.084
312.814
310.876
309.229
307.836
306.665
305.684
304.867
304.19
303.631
303.172
302.797
302.492
302.245
302.046
301.887
301.76
301.659
301.579
301.517
301.468
301.431
301.403
301.382
301.368
301.359
301.354
309.689
310.01
310.659
311.648
312.995
314.725
316.868
319.459
322.538
326.147
330.333
335.144
340.627
346.832
353.801
361.576
370.189
379.665
390.016
401.241
413.323
426.228
439.902
454.269
469.232
484.676
500.459
516.423
532.391
548.168
563.545
578.3
592.203
605.02
616.519
626.476
634.687
640.973
645.19
647.24
647.076
644.705
640.187
633.627
625.174
615.009
603.341
590.392
576.394
561.584
546.216
530.506
514.633
498.779
483.116
467.798
452.958
438.713
425.155
412.358
400.375
389.238
378.964
369.552
360.989
353.25
346.299
340.096
334.592
329.737
325.48
321.767
318.546
315.768
313.383
311.347
309.617
308.155
306.925
305.896
305.039
304.329
303.742
303.261
302.868
302.549
302.29
302.081
301.914
301.781
301.675
301.592
301.527
301.476
301.437
301.408
301.386
301.371
301.361
301.357
310.051
310.386
311.064
312.097
313.505
315.314
317.554
320.264
323.483
327.259
331.639
336.674
342.415
348.913
356.213
364.36
373.388
383.323
394.178
405.955
418.635
432.184
446.545
461.641
477.372
493.615
510.227
527.043
543.878
560.529
576.775
592.384
607.11
620.703
632.914
643.501
652.242
658.94
663.439
665.629
665.458
662.933
658.119
651.134
642.139
631.335
618.947
605.217
590.394
574.732
558.498
541.921
525.188
508.49
492.005
475.892
460.292
445.323
431.081
417.644
405.065
393.379
382.601
372.731
363.755
355.644
348.362
341.864
336.102
331.02
326.565
322.681
319.313
316.408
313.915
311.787
309.98
308.453
307.169
306.094
305.2
304.458
303.847
303.345
302.935
302.601
302.331
302.114
301.94
301.801
301.691
301.604
301.536
301.483
301.443
301.412
301.39
301.374
301.364
301.359
310.382
310.731
311.436
312.51
313.973
315.854
318.184
321.002
324.351
328.28
332.838
338.079
344.057
350.824
358.429
366.918
376.327
386.685
398.006
410.29
423.522
437.664
452.659
468.427
484.867
501.852
519.234
536.842
554.486
571.954
589.017
605.43
620.934
635.263
648.15
659.337
668.584
675.677
680.446
682.772
682.595
679.923
674.827
667.435
657.924
646.511
633.44
618.97
603.369
586.903
569.857
552.469
534.935
517.451
500.202
483.354
467.049
451.41
436.538
422.51
409.381
397.189
385.947
375.655
366.297
357.844
350.257
343.489
337.488
332.198
327.562
323.52
320.016
316.995
314.403
312.191
310.313
308.726
307.392
306.276
305.347
304.577
303.942
303.421
302.996
302.65
302.37
302.144
301.964
301.82
301.705
301.615
301.545
301.49
301.448
301.416
301.393
301.377
301.366
301.361
310.679
311.04
311.769
312.879
314.393
316.338
318.749
321.664
325.13
329.195
333.914
339.34
345.53
352.538
360.417
369.213
378.965
389.702
401.44
414.181
427.908
442.583
458.149
474.523
491.602
509.256
527.334
545.66
564.04
582.254
600.065
617.215
633.435
648.441
661.953
673.694
683.407
690.866
695.887
698.34
698.159
695.352
689.995
682.226
672.238
660.263
646.562
631.413
615.097
597.897
580.108
561.981
543.717
525.521
507.581
490.067
473.126
456.884
441.443
426.882
413.26
400.611
388.952
378.281
368.581
359.82
351.959
344.948
338.733
333.256
328.456
324.273
320.647
317.521
314.841
312.553
310.611
308.971
307.592
306.439
305.479
304.683
304.028
303.49
303.05
302.693
302.404
302.171
301.985
301.836
301.718
301.625
301.553
301.496
301.453
301.42
301.396
301.379
301.368
301.363
310.939
311.31
312.059
313.202
314.759
316.761
319.241
322.241
325.808
329.993
334.851
340.438
346.813
354.032
362.149
371.212
381.262
392.329
404.432
417.57
431.727
446.867
462.93
479.833
497.469
515.708
534.396
553.353
572.38
591.252
609.724
627.528
644.383
659.992
674.058
686.291
696.419
704.203
709.448
712.015
711.833
708.907
703.318
695.214
684.801
672.328
658.07
642.319
625.372
607.522
589.078
570.299
551.394
532.571
514.024
495.927
478.43
461.66
445.722
430.696
416.642
403.596
391.573
380.571
370.571
361.543
353.442
346.22
339.818
334.178
329.235
324.929
321.197
317.981
315.222
312.869
310.871
309.184
307.767
306.581
305.594
304.776
304.102
303.549
303.098
302.731
302.434
302.195
302.003
301.85
301.729
301.634
301.559
301.501
301.457
301.423
301.398
301.381
301.37
301.365
311.157
311.536
312.303
313.473
315.067
317.115
319.654
322.725
326.377
330.662
335.637
341.359
347.888
355.283
363.599
372.886
383.185
394.529
406.935
420.405
434.923
450.451
466.929
484.273
502.376
521.106
540.304
559.792
579.364
598.791
617.821
636.179
653.571
669.69
684.225
696.873
707.349
715.405
720.838
723.504
723.324
720.301
714.518
706.132
695.362
682.47
667.744
651.487
634.007
615.609
596.612
577.284
557.837
538.486
519.429
500.842
482.877
465.664
449.309
433.894
419.479
406.099
393.771
382.491
372.241
362.988
354.687
347.287
340.729
334.951
329.89
325.48
321.659
318.366
315.543
313.134
311.09
309.364
307.913
306.7
305.69
304.854
304.165
303.599
303.138
302.762
302.459
302.214
302.019
301.863