/*--------------------------------*- C++ -*----------------------------------*\
| =========                 |                                                 |
| \\      /  F ield         | OpenFOAM: The Open Source CFD Toolbox           |
|  \\    /   O peration     | Version:  v2012                                 |
|   \\  /    A nd           | Website:  www.openfoam.com                      |
|    \\/     M anipulation  |                                                 |
\*---------------------------------------------------------------------------*/
FoamFile
{
    version     2.0;
    format      ascii;
    class       volScalarField;
    location    "0.0001";
    object      alpha.gas;
}
// * * * * * * * * * * * * * * * * * * * * * * * * * * * * * * * * * * * * * //

dimensions      [0 0 0 0 0 0 0];


internalField   nonuniform List<scalar> 
240000
(
7.5502e-205
9.88709e-205
8.75326e-205
7.30143e-205
6.41114e-205
5.03112e-205
4.40988e-205
3.74107e-205
3.03051e-205
2.3312e-205
2.02402e-205
1.29115e-205
8.20378e-206
4.95701e-206
3.01374e-206
1.79161e-206
9.79691e-207
4.55018e-207
1.99803e-207
6.56806e-208
2.5803e-208
9.89958e-209
3.27973e-209
9.03718e-210
1.98632e-210
3.27597e-211
3.09368e-212
7.27642e-213
1.35085e-213
1.84968e-214
1.64167e-215
6.00952e-217
1.05813e-222
2.64463e-224
2.08467e-226
9.46885e-230
0
0
0
0
0
0
0
0
0
0
0
0
0
0
0
0
0
0
0
0
0
0
0
0
0
0
0
0
0
0
0
0
0
0
0
0
0
0
0
0
0
0
0
0
0
0
0
2.98116e-297
6.59851e-286
1.55225e-274
3.89607e-263
1.0484e-251
3.04209e-240
4.67119e-237
2.29981e-235
3.30007e-234
4.35784e-233
3.56309e-232
1.67872e-231
5.37895e-231
1.18907e-230
2.01163e-230
2.40653e-230
1.09198e-230
1.07362e-204
3.51605e-204
4.9555e-204
5.2501e-204
4.34584e-204
3.91091e-204
3.39006e-204
2.85661e-204
2.33572e-204
2.44483e-204
2.1554e-204
1.5565e-204
1.06662e-204
6.90433e-205
4.2842e-205
2.68198e-205
1.59389e-205
8.15204e-206
4.21582e-206
1.52561e-206
6.58407e-207
2.63406e-207
9.64657e-208
3.19892e-208
9.6867e-209
2.88898e-209
7.41865e-210
1.603e-210
2.9107e-211
4.25707e-212
4.70795e-213
3.69963e-214
1.79312e-215
4.37361e-217
3.37647e-219
1.50673e-222
0
0
0
0
0
0
0
0
0
0
0
0
0
0
0
0
0
0
0
0
0
0
0
0
0
0
0
0
0
0
0
0
0
0
0
0
0
0
0
0
0
0
0
0
0
0
0
1.7338e-295
3.61799e-284
7.97371e-273
1.86157e-261
4.6205e-250
1.22441e-238
4.00762e-235
2.33259e-233
3.43668e-232
3.24741e-231
1.68672e-230
6.60721e-230
1.38712e-229
2.50367e-229
3.00844e-229
1.83242e-229
1.70537e-230
1.21891e-204
5.60409e-204
8.92586e-204
8.8059e-204
8.66459e-204
7.83244e-204
6.72398e-204
5.57752e-204
5.84818e-204
5.63524e-204
3.83035e-204
3.21803e-204
2.26955e-204
1.51878e-204
9.55538e-205
6.07863e-205
3.62212e-205
1.58493e-205
7.23013e-206
4.54998e-206
1.6203e-206
6.67013e-207
2.47506e-207
8.20527e-208
2.55743e-208
7.78391e-209
2.07233e-209
4.62596e-210
8.40308e-211
1.19322e-211
1.24904e-212
8.90573e-214
3.71771e-215
7.18926e-217
3.2058e-219
5.07688e-224
0
0
0
0
0
0
0
0
0
0
0
0
0
0
0
0
0
0
0
0
0
0
0
0
0
0
0
0
0
0
0
0
0
0
0
0
0
0
0
0
0
0
0
0
0
0
0
0
3.01313e-292
6.83788e-281
1.64264e-269
4.19327e-258
1.14268e-246
3.34162e-235
3.09404e-233
6.35466e-232
6.06105e-231
3.04263e-230
1.12147e-229
2.51561e-229
4.4595e-229
4.96539e-229
2.59559e-229
9.59254e-231
1.18422e-204
7.42887e-204
1.07509e-203
1.24161e-203
1.24079e-203
1.1341e-203
9.21539e-204
1.115e-203
6.95369e-204
6.70891e-204
5.74999e-204
4.14986e-204
2.97374e-204
1.98294e-204
1.04464e-204
6.5444e-205
3.21093e-205
1.82809e-205
9.76587e-206
4.82784e-206
2.18551e-206
8.95898e-207
3.29158e-207
1.06742e-207
3.40149e-208
1.00406e-208
2.54416e-209
5.35919e-210
9.00757e-211
1.15228e-211
1.04929e-212
6.08362e-214
1.91351e-215
2.10723e-217
2.15311e-220
3.91731e-235
0
0
0
0
0
0
0
0
0
0
0
0
0
0
0
0
0
0
0
0
0
0
0
0
0
0
0
0
0
0
0
0
0
0
0
0
0
0
0
0
0
0
0
0
0
0
0
0
5.57028e-293
1.31322e-281
3.26924e-270
8.62735e-259
2.4243e-247
7.29108e-236
1.31499e-233
3.04101e-232
4.17918e-231
2.13331e-230
1.11236e-229
2.30661e-229
4.18522e-229
4.58372e-229
2.16725e-229
3.77181e-231
1.32261e-204
8.23357e-204
1.56872e-203
1.60132e-203
1.52344e-203
1.33681e-203
1.45465e-203
1.45116e-203
1.00559e-203
8.58532e-204
6.56271e-204
4.77686e-204
3.24579e-204
1.82351e-204
9.24552e-205
5.9176e-205
3.59956e-205
2.05569e-205
1.08544e-205
5.30214e-206
2.35351e-206
9.4048e-207
3.3335e-207
1.04738e-207
3.4028e-208
9.45147e-209
2.21291e-209
4.18984e-210
6.14187e-211
6.54771e-212
4.69966e-213
1.99514e-214
3.63202e-216
1.22358e-218
2.67804e-231
4.58945e-247
0
0
0
0
0
0
0
0
0
0
0
0
0
0
0
0
0
0
0
0
0
0
0
0
0
0
0
0
0
0
0
0
0
0
0
0
0
0
0
0
0
0
0
0
0
0
0
0
9.4327e-295
2.34481e-283
6.13159e-272
1.69318e-260
4.95868e-249
1.54754e-237
2.20524e-234
1.01838e-232
1.41351e-231
1.02165e-230
4.72162e-230
1.39541e-229
2.64555e-229
2.95209e-229
1.34088e-229
8.89851e-232
1.68002e-204
1.02578e-203
1.69462e-203
1.92301e-203
1.82747e-203
2.0947e-203
1.69022e-203
1.61322e-203
1.26001e-203
9.61221e-204
7.14633e-204
4.10534e-204
2.3859e-204
1.51169e-204
9.87727e-205
6.33668e-205
3.81541e-205
2.13577e-205
1.10736e-205
5.70019e-206
2.25749e-206
8.63656e-207
2.92507e-207
9.52372e-208
2.8837e-208
7.3615e-209
1.53557e-209
2.50007e-210
3.38003e-211
2.54611e-212
1.52557e-213
3.64359e-215
2.23663e-217
2.4049e-221
6.57068e-243
5.53839e-258
0
0
0
0
0
0
0
0
0
0
0
0
0
0
0
0
0
0
0
0
0
0
0
0
0
0
0
0
0
0
0
0
0
0
0
0
0
0
0
0
0
0
0
0
0
0
0
0
0
3.37403e-293
9.61995e-282
2.89228e-270
9.22014e-259
3.13608e-247
1.14632e-235
1.51736e-233
3.13978e-232
3.20692e-231
1.80879e-230
6.10888e-230
1.25368e-229
1.46227e-229
6.5423e-230
2.0983e-232
1.83215e-204
1.26507e-203
2.11205e-203
2.35858e-203
2.95829e-203
3.02837e-203
2.35797e-203
1.84821e-203
1.4206e-203
1.07081e-203
6.62589e-204
4.53099e-204
3.00859e-204
1.61988e-204
1.08168e-204
6.80583e-205
4.53279e-205
2.18719e-205
1.1934e-205
5.02743e-206
2.05837e-206
7.56287e-207
2.43476e-207
7.96937e-208
2.20562e-208
5.02864e-209
9.0024e-210
1.19945e-210
1.35392e-211
8.02475e-213
2.34723e-214
2.07876e-216
9.82829e-220
5.20305e-232
1.14169e-253
7.89105e-269
0
0
0
0
0
0
0
0
0
0
0
0
0
0
0
0
0
0
0
0
0
0
0
0
0
0
0
0
0
0
0
0
0
0
0
0
0
0
0
0
0
0
0
0
0
0
0
0
0
7.88109e-296
2.46204e-284
8.05674e-273
2.77752e-261
1.01523e-249
3.9619e-238
1.01933e-234
5.30219e-233
6.7472e-232
4.98072e-231
1.99536e-230
4.583e-230
5.67391e-230
2.53562e-230
8.82206e-233
2.42795e-204
1.62713e-203
2.69278e-203
2.96344e-203
4.04336e-203
3.6206e-203
2.8445e-203
2.19725e-203
1.66497e-203
1.18625e-203
7.33634e-204
4.20113e-204
2.83363e-204
1.86909e-204
1.22655e-204
7.57475e-205
4.79629e-205
2.29332e-205
1.17568e-205
4.82335e-206
1.90006e-206
6.58075e-207
2.13097e-207
6.36456e-208
1.5782e-208
3.09188e-209
4.54192e-210
5.73077e-211
3.86712e-212
1.33611e-213
1.54696e-215
1.59218e-218
2.79598e-230
2.32955e-243
2.29399e-264
1.28611e-279
0
0
0
0
0
0
0
0
0
0
0
0
0
0
0
0
0
0
0
0
0
0
0
0
0
0
0
0
0
0
0
0
0
0
0
0
0
0
0
0
0
0
0
0
0
0
0
0
0
0
1.21738e-294
4.53974e-283
1.77436e-271
7.32681e-260
3.22468e-248
1.52791e-236
3.57525e-234
9.52946e-233
9.60532e-232
4.86133e-231
1.29047e-230
1.73955e-230
8.78896e-231
2.9974e-233
3.27467e-204
2.14466e-203
3.53457e-203
3.8529e-203
5.76484e-203
4.58259e-203
3.57988e-203
2.73945e-203
2.05306e-203
1.22978e-203
7.27832e-204
6.08426e-204
3.38913e-204
2.26353e-204
1.6588e-204
9.79464e-205
5.33566e-205
2.49629e-205
1.15145e-205
4.80452e-206
1.78305e-206
5.72068e-207
1.84128e-207
4.93732e-208
1.05683e-208
1.71178e-209
2.38504e-210
1.82042e-211
7.32232e-213
1.06554e-214
1.87569e-217
5.74543e-229
1.51543e-241
6.26887e-254
5.21416e-275
2.3403e-290
0
0
0
0
0
0
0
0
0
0
0
0
0
0
0
0
0
0
0
0
0
0
0
0
0
0
0
0
0
0
0
0
0
0
0
0
0
0
0
0
0
0
0
0
0
0
0
0
0
0
0
2.38922e-294
1.08863e-282
5.19671e-271
2.62657e-259
1.4224e-247
8.3636e-236
7.41518e-234
1.22484e-232
8.42047e-232
2.71214e-231
4.06637e-231
1.92363e-231
7.82006e-234
4.47418e-204
2.89054e-203
4.77834e-203
5.18531e-203
7.64567e-203
6.07906e-203
4.74325e-203
3.58016e-203
2.65252e-203
1.58464e-203
1.13529e-203
6.40992e-204
4.25448e-204
2.86632e-204
1.81662e-204
1.41423e-204
5.75374e-205
3.14671e-205
1.23837e-205
4.91371e-206
1.68223e-206
5.4286e-207
1.57092e-207
3.6765e-208
6.56723e-209
1.00321e-209
8.67203e-211
4.06333e-212
7.33621e-214
2.00584e-216
8.34138e-228
3.75224e-240
5.25357e-252
1.89387e-264
1.31805e-285
0
0
6.40999e-300
6.34113e-299
0
0
0
0
0
0
0
0
0
0
0
0
0
0
0
0
0
0
0
0
0
0
0
0
0
0
0
0
0
0
0
0
0
0
0
0
0
0
0
0
0
0
0
0
0
0
0
0
2.01637e-298
1.1097e-286
6.29024e-275
3.71965e-263
2.32526e-251
1.55861e-239
2.02606e-235
8.89153e-234
9.38114e-233
3.97246e-232
6.89452e-232
3.94637e-232
1.45118e-234
6.17546e-204
3.99639e-203
6.63152e-203
7.20141e-203
1.04499e-202
8.41729e-203
6.50218e-203
4.09069e-203
3.55293e-203
2.1148e-203
1.22303e-203
8.50962e-204
5.6682e-204
5.14334e-204
3.25785e-204
1.84012e-204
7.88181e-205
3.96728e-205
1.37283e-205
5.06222e-206
1.6289e-206
5.12132e-207
1.30825e-207
2.86465e-208
4.33105e-209
4.2604e-210
2.33845e-211
5.23945e-213
2.1537e-215
1.25143e-226
6.52846e-239
1.62472e-250
2.03361e-262
6.34558e-275
3.65559e-296
0
7.00744e-298
2.13437e-292
2.132e-291
1.90491e-295
1.00918e-299
1.06651e-299
6.05499e-300
2.29003e-296
2.64897e-298
0
0
0
0
0
0
0
0
0
0
0
0
0
0
0
0
0
0
0
0
0
0
0
0
0
0
0
0
0
0
0
0
0
0
0
0
0
0
0
0
0
0
0
7.08578e-298
5.192e-286
3.88741e-274
3.02843e-262
2.50071e-250
2.23255e-238
2.2782e-235
5.6148e-234
3.58049e-233
9.38548e-233
4.38129e-233
1.65716e-235
8.57849e-204
5.65104e-203
9.60545e-203
1.04837e-202
1.0944e-202
9.04876e-203
9.19088e-203
5.41459e-203
4.01838e-203
2.35732e-203
1.99331e-203
1.32511e-203
1.10235e-203
7.14452e-204
4.29138e-204
2.35693e-204
1.16082e-204
4.09731e-205
1.52787e-205
5.25583e-206
1.69303e-206
4.71818e-207
1.2698e-207
1.98729e-208
2.1633e-209
1.40467e-210
3.94927e-212
2.42698e-214
7.10892e-219
2.11601e-237
3.44072e-249
7.82319e-261
8.71256e-273
2.33572e-285
0
2.17456e-296
2.07051e-290
6.2028e-285
6.26044e-284
5.64633e-288
3.05451e-292
3.04598e-292
1.79127e-292
6.78399e-289
7.92373e-291
7.28518e-297
0
0
0
0
0
0
0
0
0
0
0
0
0
0
0
0
0
0
0
0
0
0
0
0
0
0
0
0
0
0
0
0
0
0
0
0
0
0
0
0
0
0
0
1.66343e-298
1.74428e-286
1.8422e-274
2.01325e-262
2.33793e-250
2.96832e-238
1.10479e-235
1.61477e-234
5.63297e-234
3.70996e-234
9.18169e-237
1.19909e-203
1.11648e-202
1.38622e-202
1.52574e-202
1.59902e-202
1.32351e-202
1.03267e-202
6.5831e-203
5.70105e-203
3.99529e-203
3.3077e-203
2.18664e-203
1.53578e-203
9.79359e-204
5.74676e-204
3.05047e-204
1.19694e-204
5.48239e-205
1.71802e-205
5.56177e-206
1.70845e-206
5.20183e-207
9.33138e-208
1.13019e-208
8.73311e-210
3.12341e-211
2.86145e-213
4.75692e-217
6.51498e-229
8.01433e-248
2.00969e-259
4.16184e-271
4.10342e-283
9.37501e-296
3.3706e-295
5.77495e-289
5.37307e-283
1.58246e-277
1.61488e-276
1.47071e-280
8.12883e-285
7.63722e-285
4.6585e-285
1.76634e-281
2.08395e-283
1.972e-289
9.17701e-296
0
0
0
0
0
0
0
0
0
0
0
0
0
0
0
0
0
0
0
0
0
0
0
0
0
0
0
0
0
0
0
0
0
0
0
0
0
0
0
0
0
0
0
2.68822e-300
4.55138e-288
7.51979e-276
1.26657e-263
2.26467e-251
4.48472e-239
1.92058e-236
1.24062e-235
1.10628e-235
8.4386e-239
1.76307e-203
1.64277e-202
2.95401e-202
2.98144e-202
2.03364e-202
1.92097e-202
1.5217e-202
9.29882e-203
6.67807e-203
6.79555e-203
4.51742e-203
3.23296e-203
2.17168e-203
1.35579e-203
7.21421e-204
3.94231e-204
1.7025e-204
5.47303e-205
2.35784e-205
7.71888e-206
2.09014e-206
4.32185e-207
6.18807e-208
5.48515e-209
2.52693e-210
2.99402e-212
2.07615e-215
5.49533e-227
2.09154e-239
5.08402e-258
1.29457e-269
2.43414e-281
2.11369e-293
3.21303e-294
8.11842e-288
1.35395e-281
1.23037e-275
3.56064e-270
3.67642e-269
3.38204e-273
1.91097e-277
1.68895e-277
1.07009e-277
4.06132e-274
4.84201e-276
4.71887e-282
2.266e-288
7.07295e-295
0
0
0
0
0
0
0
0
0
0
0
0
0
0
0
0
0
0
0
0
0
0
0
0
0
0
0
0
0
0
0
0
0
0
0
0
0
0
0
0
0
0
0
0
0
1.91163e-288
6.09551e-276
2.0429e-263
7.73703e-251
3.61788e-238
8.67439e-238
4.88671e-246
2.47958e-203
2.7215e-202
4.94933e-202
3.93601e-202
2.97475e-202
2.43481e-202
1.8624e-202
1.36702e-202
9.70771e-203
9.81597e-203
6.7106e-203
4.70762e-203
3.10536e-203
1.88911e-203
9.79233e-204
4.61381e-204
1.67964e-204
8.01863e-205
2.66485e-205
8.17921e-206
1.93699e-206
3.29159e-207
3.52149e-208
2.03222e-209
3.5779e-211
6.88026e-214
2.90934e-225
2.53946e-237
9.78538e-250
3.81222e-268
9.16275e-280
1.55949e-291
2.1105e-293
7.06641e-287
1.73369e-280
2.81332e-274
2.4957e-268
7.09317e-263
7.41525e-262
6.89273e-266
3.98376e-270
3.30707e-270
2.17965e-270
8.27874e-267
9.97856e-269
1.00222e-274
4.96873e-281
1.60359e-287
3.79752e-294
0
0
0
0
0
0
0
0
0
0
0
0
0
0
0
0
0
0
0
0
0
0
0
0
0
0
0
0
0
0
0
0
0
0
0
0
0
0
0
0
0
0
0
0
0
0
0
2.69727e-293
3.10352e-280
4.80198e-267
1.40592e-253
4.08801e-203
4.01959e-202
7.37429e-202
5.05935e-202
4.47724e-202
3.65022e-202
2.78095e-202
2.02654e-202
1.72864e-202
1.43515e-202
1.00304e-202
6.92738e-203
4.46952e-203
2.6424e-203
1.26137e-203
5.39027e-204
2.60642e-204
9.03992e-205
3.04999e-205
8.31502e-206
1.67181e-206
2.20798e-207
1.59098e-208
4.10315e-210
1.85514e-212
1.13439e-223
1.76247e-235
1.40889e-247
7.17165e-260
3.16759e-278
7.10621e-290
1.02476e-292
4.26275e-286
1.38275e-279
3.29321e-273
5.19783e-267
4.49909e-261
1.25512e-255
1.32943e-254
1.24905e-258
7.3886e-263
5.7523e-263
3.94997e-263
1.50114e-259
1.83015e-261
1.89561e-267
9.70778e-274
3.24076e-280
7.95223e-287
1.52709e-293
1.88866e-300
0
0
0
0
0
0
0
0
0
0
0
0
0
0
0
0
0
0
0
0
0
0
0
0
0
0
0
0
0
0
0
0
0
0
0
0
0
0
0
0
0
0
0
0
0
0
0
0
0
5.76083e-203
5.95646e-202
1.10081e-201
7.61247e-202
6.76871e-202
5.48697e-202
4.16712e-202
3.02132e-202
3.08124e-202
2.11972e-202
1.51566e-202
1.02823e-202
6.46013e-203
3.45219e-203
1.38365e-203
8.11541e-204
2.64898e-204
1.07847e-204
3.38548e-205
8.00637e-206
1.30396e-206
1.2319e-207
4.39975e-209
4.16358e-211
1.51157e-216
8.52303e-234
1.16165e-245
1.09702e-257
6.65231e-270
2.89276e-288
3.8571e-292
1.90974e-285
7.68259e-279
2.41408e-272
5.58026e-266
8.56389e-260
7.22927e-254
1.97842e-248
2.12469e-247
2.01835e-251
1.22268e-255
8.91389e-256
6.38739e-256
2.42842e-252
2.99633e-254
3.20261e-260
1.695e-266
5.85493e-273
1.48902e-279
2.96876e-286
3.83121e-293
5.25242e-300
0
0
0
0
0
0
0
0
0
0
0
0
0
0
0
0
0
0
0
0
0
0
0
0
0
0
0
0
0
0
0
0
0
0
0
0
0
0
0
0
0
0
0
0
0
0
0
0
8.09195e-203
8.83084e-202
1.64249e-201
1.57781e-201
1.01768e-201
8.25871e-202
6.25703e-202
4.6816e-202
4.62414e-202
3.25317e-202
2.30634e-202
1.53394e-202
9.36167e-203
4.62503e-203
1.94791e-203
9.76038e-204
3.71931e-204
1.29659e-204
3.61139e-205
7.16251e-206
8.81092e-207
4.90709e-208
7.78768e-210
3.76069e-213
1.91634e-224
6.58681e-244
9.81479e-256
1.10175e-267
7.00191e-280
1.16365e-291
6.65814e-285
3.18299e-278
1.23844e-271
3.76977e-265
8.45672e-259
1.26158e-252
1.03815e-246
2.78538e-241
3.03508e-240
2.91598e-244
1.81009e-248
1.2339e-248
9.24194e-249
3.51447e-245
4.39121e-247
4.8465e-253
2.65198e-259
9.4811e-266
2.49938e-272
5.17393e-279
6.96987e-286
9.9133e-293
1.24331e-299
0
0
0
0
0
0
0
0
0
0
0
0
0
0
0
0
0
0
0
0
0
0
0
0
0
0
0
0
0
0
0
0
0
0
0
0
0
0
0
0
0
0
0
0
0
0
0
1.13019e-202
1.30441e-201
2.43912e-201
2.3874e-201
1.93716e-201
1.33636e-201
1.20159e-201
8.60038e-202
6.89022e-202
4.46041e-202
3.15059e-202
2.08779e-202
1.03601e-202
5.28462e-203
3.1103e-203
1.30717e-203
4.63749e-204
1.51607e-204
3.63975e-205
5.76122e-206
4.84797e-207
1.27901e-208
4.07732e-211
7.8375e-222
1.17234e-233
6.10602e-254
1.0504e-265
1.29065e-277
8.41171e-290
1.86657e-284
1.02976e-277
4.7545e-271
1.7896e-264
5.27779e-258
1.14903e-251
1.66595e-245
1.33581e-239
3.51153e-234
3.88507e-233
3.77617e-237
2.40342e-241
1.52966e-241
1.19966e-241
4.56224e-238
5.7761e-240
6.5868e-246
3.72775e-252
1.37953e-258
3.76965e-265
8.10122e-272
1.13952e-278
1.68053e-285
2.20038e-292
2.47964e-299
0
0
0
0
0
0
0
0
0
0
0
0
0
0
0
0
0
0
0
0
0
0
0
0
0
0
0
0
0
0
0
0
0
0
0
0
0
0
0
0
0
0
0
0
0
0
1.56399e-202
1.91338e-201
3.59985e-201
3.47899e-201
3.10708e-201
2.44953e-201
1.79043e-201
1.4594e-201
9.3115e-202
6.87581e-202
4.83353e-202
3.13245e-202
1.75563e-202
9.95287e-203
4.09374e-203
1.63428e-203
5.87929e-204
1.70442e-204
3.40165e-205
3.98623e-206
1.95275e-207
1.732e-209
6.27545e-219
3.63372e-229
5.17905e-240
6.93593e-264
1.32931e-275
1.68364e-287
4.30831e-284
2.68617e-277
1.42948e-270
6.37712e-264
2.32316e-257
6.63999e-251
1.40318e-244
1.97703e-238
1.54407e-232
3.9744e-227
4.46788e-226
4.39451e-230
2.86962e-234
1.70272e-234
1.40076e-234
5.3264e-231
6.83784e-233
8.06123e-239
4.71969e-245
1.80801e-251
5.12023e-258
1.14201e-264
1.67747e-271
2.56322e-278
3.50246e-285
4.12764e-292
4.24969e-299
0
0
0
0
0
0
0
0
0
0
0
0
0
0
0
0
0
0
0
0
0
0
0
0
0
0
0
0
0
0
0
0
0
0
0
0
0
0
0
0
0
0
0
0
0
2.12827e-202
2.78016e-201
5.32537e-201
5.24705e-201
4.60482e-201
3.63363e-201
2.73367e-201
1.92125e-201
1.43386e-201
1.06472e-201
7.38276e-202
3.64372e-202
2.1932e-202
1.37993e-202
5.71456e-203
2.09089e-203
7.24166e-204
1.81156e-204
2.86188e-205
2.22121e-206
4.644e-208
1.43939e-211
5.04935e-222
2.46767e-233
2.74869e-244
9.2899e-274
1.8914e-285
8.3305e-284
5.78059e-277
3.47312e-270
1.78403e-263
7.69532e-257
2.71506e-250
7.52468e-244
1.544e-237
2.11412e-231
1.60774e-225
4.04938e-220
4.62864e-219
4.60823e-223
3.0893e-227
1.70651e-227
1.47538e-227
5.60848e-224
7.30583e-226
8.90878e-232
5.39674e-238
2.13965e-244
6.27755e-251
1.45231e-257
2.22757e-264
3.52314e-271
5.02113e-278
6.18476e-285
6.66869e-292
6.34245e-299
0
0
0
0
0
0
0
0
0
0
0
0
0
0
0
0
0
0
0
0
0
0
0
0
0
0
0
0
0
0
0
0
0
0
0
0
0
0
0
0
0
0
0
0
2.83441e-202
3.99598e-201
7.81972e-201
8.64183e-201
7.96013e-201
5.51093e-201
4.60102e-201
3.24031e-201
1.76195e-201
1.63784e-201
8.74606e-202
5.41437e-202
4.07475e-202
1.90201e-202
7.4904e-203
2.7749e-203
8.56645e-204
1.78377e-204
2.07222e-205
8.84561e-207
3.57229e-209
1.82427e-219
1.51298e-230
4.001e-241
5.8268e-252
5.39241e-273
1.36666e-283
1.04346e-276
6.97202e-270
4.04021e-263
2.00508e-256
8.37059e-250
2.86309e-243
7.70028e-237
1.53507e-230
2.04296e-224
1.5124e-218
3.725e-213
4.33246e-212
4.36716e-216
3.00761e-220
1.54449e-220
1.40604e-220
5.34238e-217
7.06686e-219
8.9173e-225
5.5891e-231
2.29251e-237
6.96363e-244
1.66965e-250
2.67327e-257
4.37055e-264
6.49128e-271
8.35007e-278
9.42222e-285
9.39429e-292
8.32193e-299
0
0
0
0
0
0
0
0
0
0
0
0
0
0
0
0
0
0
0
0
0
0
0
0
0
0
0
0
0
0
0
0
0
0
0
0
0
0
0
0
0
0
0
3.65646e-202
5.5229e-201
1.13918e-200
1.29291e-200
1.17426e-200
9.39771e-201
5.98391e-201
3.63982e-201
2.69948e-201
1.95966e-201
1.31421e-201
7.99216e-202
5.52462e-202
2.59769e-202
9.59319e-203
3.5695e-203
9.59047e-204
1.58348e-204
1.21064e-205
1.96421e-207
1.19571e-214
2.00068e-224
1.47779e-234
6.74387e-245
1.61196e-255
3.9838e-267
1.59896e-276
1.17485e-269
7.56673e-263
4.23416e-256
2.03281e-249
8.22432e-243
2.73086e-236
7.13537e-230
1.38313e-223
1.78976e-217
1.2896e-211
3.10397e-206
3.67599e-205
3.75259e-209
2.65673e-213
1.26654e-213
1.21655e-213
4.61931e-210
6.20982e-212
8.11141e-218
5.25915e-224
2.23025e-230
7.00702e-237
1.73904e-243
2.90468e-250
4.90057e-257
7.5764e-264
1.01667e-270
1.19938e-277
1.25249e-284
1.16387e-291
9.66134e-299
0
0
0
0
0
0
0
0
0
0
0
0
0
0
0
0
0
0
0
0
0
0
0
0
0
0
0
0
0
0
0
0
0
0
0
0
0
0
0
0
0
0
4.86851e-202
7.79232e-201
1.64382e-200
1.88505e-200
1.72313e-200
1.38251e-200
1.02359e-200
5.32844e-201
4.09281e-201
2.9514e-201
1.95676e-201
1.43918e-201
7.83463e-202
3.48931e-202
1.30362e-202
4.40668e-203
9.98475e-204
1.22357e-204
5.0992e-206
1.09526e-208
7.98814e-219
1.05648e-229
5.409e-240
2.10321e-250
4.98628e-261
2.7413e-272
1.68047e-269
1.18969e-262
7.39631e-256
4.00289e-249
1.8623e-242
7.31481e-236
2.36226e-229
6.00551e-223
1.13328e-216
1.42662e-210
1.00047e-204
2.35173e-199
2.83792e-198
2.93469e-202
2.13736e-206
9.44613e-207
9.59374e-207
3.63959e-203
4.97645e-205
6.73049e-211
4.51229e-217
1.97638e-223
6.4136e-230
1.64483e-236
2.86311e-243
4.97385e-250
7.99199e-257
1.11709e-263
1.37599e-270
1.50328e-277
1.46382e-284
1.27503e-291
9.96141e-299
0
0
0
0
0
0
0
0
0
0
0
0
0
0
0
0
0
0
0
0
0
0
0
0
0
0
0
0
0
0
0
0
0
0
0
0
0
0
0
0
0
6.72301e-202
9.24344e-201
2.35385e-200
2.73157e-200
2.51055e-200
2.01877e-200
1.27354e-200
8.02096e-201
6.1367e-201
4.39567e-201
2.8807e-201
1.68862e-201
1.09177e-201
4.57524e-202
1.72737e-202
5.16239e-203
9.48242e-204
7.83518e-205
1.22497e-206
3.99518e-214
9.49177e-224
1.09577e-233
9.02916e-244
5.31159e-254
1.91521e-264
2.05549e-269
1.58645e-262
1.08386e-255
6.51634e-249
3.41794e-242
1.54443e-235
5.90311e-229
1.85869e-222
4.60696e-216
8.47712e-210
1.03898e-203
7.09221e-198
1.62711e-192
2.00213e-191
2.09784e-195
1.57295e-199
6.43562e-200
6.92662e-200
2.62478e-196
3.65335e-198
5.11642e-204
3.54446e-210
1.60118e-216
5.35668e-223
1.41626e-229
2.56531e-236
4.57599e-243
7.62603e-250
1.10822e-256
1.42291e-263
1.62395e-270
1.6549e-277
1.51074e-284
1.23846e-291
9.13386e-299
0
0
0
0
0
0
0
0
0
0
0
0
0
0
0
0
0
0
0
0
0
0
0
0
0
0
0
0
0
0
0
0
0
0
0
0
0
0
0
0
8.21248e-202
1.03172e-200
3.34112e-200
3.92716e-200
3.63548e-200
2.9235e-200
2.10612e-200
1.1926e-200
9.08381e-201
6.46209e-201
4.19131e-201
2.40264e-201
1.2262e-201
5.82507e-202
2.20223e-202
5.68117e-203
8.02464e-204
3.81719e-205
8.05893e-208
9.14559e-218
1.5279e-228
1.20604e-238
8.24375e-249
4.48995e-259
3.81639e-269
1.80574e-262
1.34475e-255
8.88372e-249
5.17708e-242
2.63885e-235
1.16153e-228
4.33325e-222
1.33468e-215
3.23394e-209
5.815e-203
6.94685e-197
4.61694e-191
1.03319e-185
1.29729e-184
1.3777e-188
1.06431e-192
4.0257e-193
4.60252e-193
1.74159e-189
2.46973e-191
3.5812e-197
2.56102e-203
1.1909e-209
4.09673e-216
1.11314e-222
2.09374e-229
3.82107e-236
6.58682e-243
9.92745e-250
1.32589e-256
1.57793e-263
1.68016e-270
1.60523e-277
1.37895e-284
1.06675e-291
7.44077e-299
0
0
0
0
0
0
0
0
0
0
0
0
0
0
0
0
0
0
0
0
0
0
0
0
0
0
0
0
0
0
0
0
0
0
0
0
0
0
0
1.10143e-201
1.75936e-200
4.70613e-200
5.6031e-200
5.21687e-200
4.19439e-200
3.09778e-200
1.75068e-200
1.32714e-200
9.3737e-201
6.00521e-201
3.35694e-201
1.63022e-201
7.79224e-202
2.68105e-202
5.8111e-203
5.87452e-204
1.21002e-205
1.08678e-212
3.62642e-222
5.48423e-232
6.70732e-242
6.67455e-252
5.13896e-262
1.75958e-262
1.41993e-255
1.02238e-248
6.54693e-242
3.70904e-235
1.8436e-228
7.93586e-222
2.90085e-215
8.77905e-209
2.08679e-202
3.67723e-196
4.28253e-190
2.73196e-184
5.89313e-179
7.49732e-178
8.03711e-182
6.39416e-186
2.23658e-186
2.73636e-186
1.04145e-182
1.52224e-184
2.31689e-190
1.71136e-196
8.17068e-203
2.88031e-209
8.00904e-216
1.55997e-222
2.89895e-229
5.15075e-236
8.02667e-243
1.11226e-249
1.37728e-256
1.52942e-263
1.52668e-270
1.37218e-277
1.11185e-284
8.12942e-292
5.36772e-299
0
0
0
0
0
0
0
0
0
0
0
0
0
0
0
0
0
0
0
0
0
0
0
0
0
0
0
0
0
0
0
0
0
0
0
0
0
0
1.45959e-201
2.8296e-200
6.57754e-200
7.92413e-200
7.41399e-200
5.94699e-200
3.79991e-200
2.53468e-200
1.91144e-200
1.33953e-200
8.45611e-201
4.58902e-201
2.10741e-201
1.01389e-201
3.11009e-202
5.47483e-203
3.5695e-204
1.67885e-206
2.82595e-216
1.30028e-226
6.53087e-237
5.66626e-247
5.06109e-257
1.46765e-262
1.27803e-255
9.97042e-249
6.95786e-242
4.33156e-235
2.39426e-228
1.16568e-221
4.93274e-215
1.77547e-208
5.31133e-202
1.23148e-195
2.08104e-189
2.32106e-183
1.41765e-177
2.94002e-172
3.78851e-171
4.09998e-175
3.36273e-179
1.08682e-179
1.42874e-179
5.47378e-176
8.2682e-178
1.32418e-183
1.02701e-189
5.13814e-196
1.86928e-202
5.29128e-209
1.06315e-215
1.99911e-222
3.64408e-229
5.84939e-236
8.38376e-243
1.07741e-249
1.24502e-256
1.29598e-263
1.21661e-270
1.03085e-277
7.88848e-285
5.45459e-292
3.40952e-299
0
0
0
0
0
0
0
0
0
0
0
0
0
0
0
0
0
0
0
0
0
0
0
0
0
0
0
0
0
0
0
0
0
0
0
0
0
1.90877e-201
3.7402e-200
9.11654e-200
9.31742e-200
8.60429e-200
7.04505e-200
5.55453e-200
3.61784e-200
2.71248e-200
1.88324e-200
1.16896e-200
6.57117e-201
2.64453e-201
1.27293e-201
3.42833e-202
4.70235e-203
1.6825e-204
2.95662e-209
5.97927e-219
4.47208e-229
4.0233e-239
4.46004e-249
5.12752e-259
9.78714e-256
8.23884e-249
6.22792e-242
4.22384e-235
2.56503e-228
1.3893e-221
6.6625e-215
2.79185e-208
9.95684e-202
2.86171e-195
6.36033e-189
1.02832e-182
1.09552e-176
6.38814e-171
1.26992e-165
1.65663e-164
1.81024e-168
1.53246e-172
4.57351e-173
6.49079e-173
2.50592e-169
3.92375e-171
6.63e-177
5.41205e-183
2.84307e-189
1.08363e-195
3.20694e-202
6.63723e-209
1.25245e-215
2.32732e-222
3.83034e-229
5.65852e-236
7.52541e-243
9.02744e-250
9.77823e-257
9.569e-264
8.4632e-271
6.76656e-278
4.89159e-285
3.19789e-292
1.89102e-299
0
0
0
0
0
0
0
0
0
0
0
0
0
0
0
0
0
0
0
0
0
0
0
0
0
0
0
0
0
0
0
0
0
0
0
0
2.61348e-201
5.22799e-200
1.02418e-199
1.23628e-199
1.18682e-199
7.79851e-200
7.96375e-200
5.0855e-200
3.78949e-200
2.60105e-200
1.58236e-200
8.54627e-201
3.53443e-201
1.54397e-201
3.59059e-202
3.62296e-203
5.47755e-205
1.2029e-214
9.41407e-225
6.78034e-235
5.69658e-245
5.41e-255
6.34229e-256
5.74602e-249
4.68547e-242
3.44017e-235
2.27408e-228
1.35206e-221
7.21067e-215
3.4288e-208
1.41761e-201
4.85569e-195
1.3376e-188
2.84307e-182
4.38603e-176
4.45005e-170
2.46933e-164
4.68952e-159
6.18829e-158
6.82977e-162
5.97553e-166
1.64629e-166
2.5363e-166
9.881e-163
1.60965e-164
2.87799e-170
2.479e-176
1.37048e-182
5.483e-189
1.69918e-195
3.71296e-202
7.10754e-209
1.33639e-215
2.24111e-222
3.39952e-229
4.66522e-236
5.79503e-243
6.51719e-250
6.63487e-257
6.1135e-264
5.09746e-271
3.8456e-278
2.62474e-285
1.62075e-292
9.05466e-300
0
0
0
0
0
0
0
0
0
0
0
0
0
0
0
0
0
0
0
0
0
0
0
0
0
0
0
0
0
0
0
0
0
0
0
3.36108e-201
7.02651e-200
1.70637e-199
1.65059e-199
1.63305e-199
1.36742e-199
8.96324e-200
7.03787e-200
5.20482e-200
3.91087e-200
2.28238e-200
1.08551e-200
5.38294e-201
1.81179e-201
3.53565e-202
2.51202e-203
9.17073e-206
2.20438e-215
1.96103e-225
1.60561e-235
1.50491e-245
1.86384e-255
3.35496e-249
2.94362e-242
2.32988e-235
1.66542e-228
1.07601e-221
6.2853e-215
3.31652e-208
1.5579e-201
6.18674e-195
2.03113e-188
5.35013e-182
1.0846e-175
1.59179e-169
1.53292e-163
8.06478e-158
1.45744e-152
1.94328e-151
2.16716e-155
1.96257e-159
4.99251e-160
8.40392e-160
3.30968e-156
5.63405e-158
1.0693e-163
9.74637e-170
5.68426e-176
2.39212e-182
7.77644e-189
1.79644e-195
3.56981e-202
6.84606e-209
1.16183e-215
1.80093e-222
2.5437e-229
3.26428e-236
3.80329e-243
4.01983e-250
3.85121e-257
3.34237e-264
2.62643e-271
1.86799e-278
1.2022e-285
7.00033e-293
3.68792e-300
0
0
0
0
0
0
0
0
0
0
0
0
0
0
0
0
0
0
0
0
0
0
0
0
0
0
0
0
0
0
0
0
0
0
4.50959e-201
9.37043e-200
1.94237e-199
2.33282e-199
1.75335e-199
1.81364e-199
1.557e-199
1.31729e-199
7.0311e-200
5.1977e-200
2.95828e-200
1.35109e-200
6.67026e-201
2.03026e-201
3.37364e-202
1.53913e-203
1.15198e-207
3.07944e-217
3.3441e-227
3.58599e-237
4.39442e-247
1.61854e-249
1.52625e-242
1.2991e-235
9.99932e-229
6.97298e-222
4.41343e-215
2.53914e-208
1.32854e-201
5.99525e-195
2.28229e-188
7.16516e-182
1.79993e-175
3.46981e-169
4.82816e-163
4.3966e-157
2.18381e-151
3.73834e-146
5.02846e-145
5.67048e-149
5.324e-153
1.25174e-153
2.32023e-153
9.25823e-150
1.6557e-151
3.34707e-157
3.23799e-163
1.9975e-169
8.86244e-176
3.02809e-182
7.40464e-189
1.53108e-195
3.06181e-202
5.26563e-209
8.30409e-216
1.20418e-222
1.59334e-229
1.91941e-236
2.10199e-243
2.08978e-250
1.8841e-257
1.53911e-264
1.13845e-271
7.62141e-279
4.61636e-286
2.52946e-293
1.25368e-300
0
0
0
0
0
0
0
0
0
0
0
0
0
0
0
0
0
0
0
0
0
0
0
0
0
0
0
0
0
0
0
0
0
5.72164e-201
1.23845e-199
2.5884e-199
2.5323e-199
2.33815e-199
2.52678e-199
2.09883e-199
1.34519e-199
9.33719e-200
6.78849e-200
3.76791e-200
1.65142e-200
8.09389e-201
2.26363e-201
3.09932e-202
8.24469e-204
1.24842e-211
7.43887e-221
2.37173e-230
5.70687e-240
1.77519e-249
6.41164e-243
5.86256e-236
4.8476e-229
3.63382e-222
2.47633e-215
1.53896e-208
8.75293e-202
4.42161e-195
1.91317e-188
6.96608e-182
2.08597e-175
4.98276e-169
9.10379e-163
1.19654e-156
1.02592e-150
4.78779e-145
7.72202e-140
1.04549e-138
1.19355e-142
1.164e-146
2.53469e-147
5.22318e-147
2.11777e-143
4.00482e-145
8.65474e-151
8.91498e-157
5.83346e-163
2.73529e-169
9.84329e-176
2.55099e-182
5.50397e-189
1.14884e-195
2.05854e-202
3.28962e-209
4.86357e-216
6.62139e-223
8.23193e-230
9.32348e-237
9.6012e-244
8.97548e-251
7.60752e-258
5.84084e-265
4.05934e-272
2.55252e-279
1.45171e-286
7.4664e-294
0
0
0
0
0
0
0
0
0
0
0
0
0
0
0
0
0
0
0
0
0
0
0
0
0
0
0
0
0
0
0
0
0
7.22733e-201
1.6187e-199
4.01437e-199
3.20797e-199
3.19396e-199
3.24878e-199
2.78444e-199
1.77429e-199
1.36725e-199
8.7148e-200
4.71939e-200
2.53612e-200
9.66515e-201
2.48148e-201
2.77624e-202
3.00645e-204
8.97839e-214
1.13366e-223
1.30096e-233
1.6055e-243
2.1248e-243
2.08671e-236
1.85111e-229
1.48713e-222
1.08515e-215
7.21629e-209
4.39053e-202
2.4547e-195
1.18935e-188
4.92389e-182
1.71064e-175
4.8723e-169
1.10319e-162
1.90341e-156
2.35322e-150
1.89066e-144
8.24395e-139
1.24472e-133
1.691e-132
1.95831e-136
1.98794e-140
4.02462e-141
9.33121e-141
3.85814e-137
7.77733e-139
1.80359e-144
1.98471e-150
1.3815e-156
6.86318e-163
2.60687e-169
7.1682e-176
1.61881e-182
3.53068e-189
6.59742e-196
1.07995e-202
1.62944e-209
2.27932e-216
2.92296e-223
3.42056e-230
3.64402e-237
3.52701e-244
3.09675e-251
2.46357e-258
1.77419e-265
1.15592e-272
6.81032e-280
3.62739e-287
1.74644e-294
0
0
0
0
0
0
0
0
0
0
0
0
0
0
0
0
0
0
0
0
0
0
0
0
0
0
0
0
0
0
0
0
9.08428e-201
2.09009e-199
5.06524e-199
4.15702e-199
3.97086e-199
4.39449e-199
3.50168e-199
2.19402e-199
1.75246e-199
1.10164e-199
5.82865e-200
3.0195e-200
1.12313e-200
2.69701e-201
1.91925e-202
1.19315e-204
3.76014e-214
5.08624e-224
6.27861e-234
1.36831e-243
5.66053e-237
5.3939e-230
4.64759e-223
3.63178e-216
2.58262e-209
1.67798e-202
1.00079e-195
5.36919e-189
2.49042e-182
9.84318e-176
3.2546e-169
8.79155e-163
1.88054e-156
3.05215e-150
3.53342e-144
2.64591e-138
1.07091e-132
1.50179e-127
2.03861e-126
2.40389e-130
2.54631e-134
4.82358e-135
1.27827e-134
5.41202e-131
1.17463e-132
2.9343e-138
3.46088e-144
2.56991e-150
1.35598e-156
5.44781e-163
1.59094e-169
3.77284e-176
8.60783e-183
1.67881e-189
2.8621e-196
4.4063e-203
6.31108e-210
8.33953e-217
1.00711e-223
1.10831e-230
1.10884e-237
1.00673e-244
8.2828e-252
6.16893e-259
4.15601e-266
2.5313e-273
1.39336e-280
6.93026e-288
3.11441e-295
0
0
0
0
0
0
0
0
0
0
0
0
0
0
0
0
0
0
0
0
0
0
0
0
0
0
0
0
0
0
0
1.13331e-200
2.66624e-199
6.62734e-199
6.7469e-199
5.07425e-199
4.64214e-199
4.49034e-199
2.7989e-199
2.21244e-199
1.37265e-199
9.04585e-200
3.63475e-200
1.32329e-200
2.93024e-201
1.71768e-202
4.00651e-205
1.32285e-214
1.90232e-224
2.5126e-234
1.10423e-237
1.13116e-230
1.04538e-223
8.74071e-217
6.63364e-210
4.58697e-203
2.90258e-196
1.68969e-189
8.68479e-183
3.84912e-176
1.44927e-169
4.54922e-163