/*--------------------------------*- C++ -*----------------------------------*\
| =========                 |                                                 |
| \\      /  F ield         | OpenFOAM: The Open Source CFD Toolbox           |
|  \\    /   O peration     | Version:  v2012                                 |
|   \\  /    A nd           | Website:  www.openfoam.com                      |
|    \\/     M anipulation  |                                                 |
\*---------------------------------------------------------------------------*/
FoamFile
{
    version     2.0;
    format      ascii;
    class       volScalarField;
    location    "0.0001";
    object      T;
}
// * * * * * * * * * * * * * * * * * * * * * * * * * * * * * * * * * * * * * //

dimensions      [0 0 0 1 0 0 0];


internalField   nonuniform List<scalar> 
240000
(
301.3
301.3
301.3
301.3
301.3
301.3
301.3
301.3
301.3
301.3
301.3
301.3
301.3
301.3
301.3
301.3
301.301
301.301
301.301
301.301
301.302
301.302
301.303
301.303
301.304
301.305
301.306
301.307
301.308
301.309
301.31
301.311
301.312
301.313
301.314
301.314
301.315
301.316
301.316
301.316
301.316
301.316
301.315
301.315
301.314
301.313
301.312
301.311
301.31
301.309
301.308
301.307
301.306
301.305
301.305
301.304
301.303
301.303
301.302
301.302
301.301
301.301
301.301
301.301
301.3
301.3
301.3
301.3
301.3
301.3
301.3
301.3
301.3
301.3
301.3
301.3
301.3
301.3
301.3
301.3
301.3
301.3
301.3
301.3
301.3
301.3
301.3
301.3
301.3
301.3
301.3
301.3
301.3
301.3
301.3
301.3
301.3
301.3
301.3
301.3
301.3
301.3
301.3
301.3
301.3
301.3
301.3
301.3
301.3
301.3
301.3
301.3
301.3
301.3
301.3
301.301
301.301
301.301
301.301
301.302
301.302
301.303
301.303
301.304
301.305
301.306
301.307
301.308
301.309
301.31
301.312
301.313
301.314
301.315
301.316
301.317
301.318
301.319
301.319
301.319
301.319
301.319
301.318
301.318
301.317
301.316
301.315
301.314
301.312
301.311
301.31
301.309
301.307
301.306
301.305
301.305
301.304
301.303
301.303
301.302
301.302
301.301
301.301
301.301
301.301
301.3
301.3
301.3
301.3
301.3
301.3
301.3
301.3
301.3
301.3
301.3
301.3
301.3
301.3
301.3
301.3
301.3
301.3
301.3
301.3
301.3
301.3
301.3
301.3
301.3
301.3
301.3
301.3
301.3
301.3
301.3
301.3
301.3
301.3
301.3
301.3
301.3
301.3
301.3
301.3
301.3
301.3
301.3
301.3
301.3
301.3
301.3
301.3
301.3
301.301
301.301
301.301
301.301
301.302
301.302
301.303
301.304
301.304
301.305
301.307
301.308
301.309
301.311
301.312
301.314
301.316
301.317
301.319
301.321
301.322
301.323
301.325
301.325
301.326
301.326
301.326
301.326
301.325
301.324
301.323
301.322
301.32
301.318
301.317
301.315
301.313
301.312
301.31
301.309
301.307
301.306
301.305
301.304
301.303
301.303
301.302
301.302
301.301
301.301
301.301
301.301
301.3
301.3
301.3
301.3
301.3
301.3
301.3
301.3
301.3
301.3
301.3
301.3
301.3
301.3
301.3
301.3
301.3
301.3
301.3
301.3
301.3
301.3
301.3
301.3
301.3
301.3
301.3
301.3
301.3
301.3
301.3
301.3
301.3
301.3
301.3
301.3
301.3
301.3
301.3
301.3
301.3
301.3
301.3
301.3
301.3
301.3
301.3
301.301
301.301
301.301
301.302
301.302
301.303
301.303
301.304
301.305
301.307
301.308
301.31
301.311
301.313
301.316
301.318
301.32
301.323
301.325
301.328
301.33
301.332
301.334
301.335
301.337
301.337
301.338
301.338
301.337
301.336
301.335
301.333
301.331
301.329
301.327
301.324
301.322
301.319
301.317
301.315
301.313
301.311
301.309
301.308
301.306
301.305
301.304
301.303
301.302
301.302
301.301
301.301
301.301
301.301
301.3
301.3
301.3
301.3
301.3
301.3
301.3
301.3
301.3
301.3
301.3
301.3
301.3
301.3
301.3
301.3
301.3
301.3
301.3
301.3
301.3
301.3
301.3
301.3
301.3
301.3
301.3
301.3
301.3
301.3
301.3
301.3
301.3
301.3
301.3
301.3
301.3
301.3
301.3
301.3
301.3
301.3
301.3
301.3
301.3
301.301
301.301
301.301
301.302
301.302
301.303
301.304
301.305
301.306
301.308
301.31
301.312
301.314
301.317
301.32
301.323
301.326
301.33
301.334
301.337
301.341
301.344
301.347
301.35
301.352
301.354
301.355
301.355
301.355
301.355
301.353
301.351
301.349
301.346
301.343
301.339
301.336
301.332
301.329
301.325
301.322
301.319
301.316
301.313
301.311
301.309
301.307
301.306
301.305
301.304
301.303
301.302
301.302
301.301
301.301
301.301
301.3
301.3
301.3
301.3
301.3
301.3
301.3
301.3
301.3
301.3
301.3
301.3
301.3
301.3
301.3
301.3
301.3
301.3
301.3
301.3
301.3
301.3
301.3
301.3
301.3
301.3
301.3
301.3
301.3
301.3
301.3
301.3
301.3
301.3
301.3
301.3
301.3
301.3
301.3
301.3
301.3
301.3
301.301
301.301
301.301
301.301
301.302
301.303
301.303
301.304
301.306
301.307
301.309
301.312
301.314
301.317
301.321
301.325
301.329
301.334
301.339
301.344
301.349
301.355
301.36
301.365
301.369
301.373
301.377
301.379
301.381
301.382
301.381
301.38
301.378
301.376
301.372
301.368
301.363
301.358
301.353
301.348
301.342
301.337
301.332
301.328
301.324
301.32
301.317
301.314
301.311
301.309
301.307
301.306
301.304
301.303
301.302
301.302
301.301
301.301
301.301
301.301
301.3
301.3
301.3
301.3
301.3
301.3
301.3
301.3
301.3
301.3
301.3
301.3
301.3
301.3
301.3
301.3
301.3
301.3
301.3
301.3
301.3
301.3
301.3
301.3
301.3
301.3
301.3
301.3
301.3
301.3
301.3
301.3
301.3
301.3
301.3
301.3
301.3
301.3
301.3
301.301
301.301
301.301
301.302
301.302
301.303
301.304
301.305
301.307
301.308
301.311
301.314
301.317
301.321
301.326
301.331
301.337
301.343
301.35
301.357
301.365
301.373
301.38
301.388
301.395
301.402
301.407
301.412
301.416
301.418
301.419
301.419
301.418
301.415
301.411
301.406
301.399
301.393
301.385
301.378
301.37
301.362
301.355
301.348
301.341
301.335
301.329
301.325
301.32
301.316
301.313
301.31
301.308
301.306
301.305
301.304
301.303
301.302
301.301
301.301
301.301
301.301
301.3
301.3
301.3
301.3
301.3
301.3
301.3
301.3
301.3
301.3
301.3
301.3
301.3
301.3
301.3
301.3
301.3
301.3
301.3
301.3
301.3
301.3
301.3
301.3
301.3
301.3
301.3
301.3
301.3
301.3
301.3
301.3
301.3
301.3
301.3
301.3
301.3
301.301
301.301
301.301
301.302
301.302
301.303
301.304
301.306
301.307
301.31
301.312
301.316
301.32
301.325
301.331
301.337
301.345
301.353
301.362
301.372
301.383
301.394
301.405
301.416
301.427
301.438
301.447
301.456
301.463
301.468
301.471
301.473
301.473
301.47
301.466
301.46
301.453
301.444
301.434
301.424
301.413
301.401
301.39
301.38
301.37
301.36
301.351
301.343
301.336
301.329
301.324
301.319
301.315
301.312
301.309
301.307
301.305
301.304
301.303
301.302
301.302
301.301
301.301
301.301
301.3
301.3
301.3
301.3
301.3
301.3
301.3
301.3
301.3
301.3
301.3
301.3
301.3
301.3
301.3
301.3
301.3
301.3
301.3
301.3
301.3
301.3
301.3
301.3
301.3
301.3
301.3
301.3
301.3
301.3
301.3
301.3
301.3
301.3
301.3
301.301
301.301
301.301
301.302
301.302
301.303
301.304
301.306
301.308
301.311
301.314
301.318
301.323
301.329
301.336
301.344
301.354
301.364
301.376
301.39
301.404
301.419
301.435
301.451
301.467
301.483
301.497
301.511
301.523
301.533
301.54
301.545
301.548
301.547
301.544
301.538
301.53
301.519
301.507
301.493
301.478
301.462
301.446
301.43
301.415
301.4
301.386
301.374
301.362
301.352
301.343
301.335
301.328
301.322
301.317
301.313
301.31
301.308
301.306
301.304
301.303
301.302
301.302
301.301
301.301
301.301
301.3
301.3
301.3
301.3
301.3
301.3
301.3
301.3
301.3
301.3
301.3
301.3
301.3
301.3
301.3
301.3
301.3
301.3
301.3
301.3
301.3
301.3
301.3
301.3
301.3
301.3
301.3
301.3
301.3
301.3
301.3
301.3
301.3
301.301
301.301
301.301
301.302
301.302
301.303
301.305
301.306
301.309
301.311
301.315
301.32
301.325
301.332
301.341
301.351
301.363
301.376
301.391
301.408
301.427
301.447
301.469
301.491
301.514
301.536
301.558
301.579
301.598
301.615
301.629
301.64
301.647
301.65
301.65
301.645
301.637
301.625
301.61
301.593
301.573
301.552
301.53
301.507
301.484
301.463
301.442
301.423
301.405
301.388
301.374
301.361
301.349
301.34
301.332
301.325
301.319
301.315
301.311
301.308
301.306
301.305
301.303
301.302
301.302
301.301
301.301
301.301
301.3
301.3
301.3
301.3
301.3
301.3
301.3
301.3
301.3
301.3
301.3
301.3
301.3
301.3
301.3
301.3
301.3
301.3
301.3
301.3
301.3
301.3
301.3
301.3
301.3
301.3
301.3
301.3
301.3
301.3
301.3
301.301
301.301
301.301
301.302
301.302
301.303
301.305
301.307
301.309
301.312
301.316
301.321
301.328
301.336
301.346
301.358
301.372
301.388
301.407
301.428
301.452
301.478
301.507
301.536
301.567
301.599
301.631
301.661
301.69
301.717
301.74
301.76
301.774
301.784
301.789
301.788
301.782
301.77
301.754
301.733
301.709
301.682
301.652
301.621
301.59
301.559
301.529
301.5
301.473
301.447
301.424
301.404
301.385
301.37
301.356
301.345
301.335
301.327
301.321
301.316
301.312
301.309
301.306
301.305
301.303
301.302
301.302
301.301
301.301
301.301
301.3
301.3
301.3
301.3
301.3
301.3
301.3
301.3
301.3
301.3
301.3
301.3
301.3
301.3
301.3
301.3
301.3
301.3
301.3
301.3
301.3
301.3
301.3
301.3
301.3
301.3
301.3
301.3
301.3
301.3
301.301
301.301
301.302
301.302
301.303
301.305
301.307
301.309
301.312
301.317
301.323
301.33
301.339
301.35
301.364
301.38
301.4
301.422
301.448
301.478
301.511
301.547
301.586
301.627
301.67
301.713
301.756
301.799
301.838
301.875
301.907
301.934
301.954
301.968
301.974
301.973
301.964
301.949
301.926
301.898
301.865
301.827
301.787
301.745
301.701
301.658
301.617
301.577
301.539
301.505
301.473
301.444
301.419
301.397
301.378
301.362
301.349
301.338
301.329
301.322
301.317
301.312
301.309
301.307
301.305
301.303
301.302
301.302
301.301
301.301
301.3
301.3
301.3
301.3
301.3
301.3
301.3
301.3
301.3
301.3
301.3
301.3
301.3
301.3
301.3
301.3
301.3
301.3
301.3
301.3
301.3
301.3
301.3
301.3
301.3
301.3
301.3
301.3
301.3
301.301
301.301
301.301
301.302
301.303
301.305
301.306
301.309
301.313
301.317
301.323
301.331
301.341
301.353
301.369
301.388
301.41
301.437
301.468
301.503
301.544
301.589
301.638
301.691
301.747
301.805
301.864
301.922
301.979
302.033
302.083
302.126
302.162
302.19
302.208
302.217
302.215
302.204
302.183
302.153
302.115
302.07
302.019
301.964
301.907
301.848
301.79
301.733
301.679
301.628
301.581
301.537
301.498
301.464
301.434
301.408
301.386
301.368
301.353
301.34
301.331
301.323
301.317
301.313
301.309
301.306
301.305
301.303
301.302
301.301
301.301
301.301
301.3
301.3
301.3
301.3
301.3
301.3
301.3
301.3
301.3
301.3
301.3
301.3
301.3
301.3
301.3
301.3
301.3
301.3
301.3
301.3
301.3
301.3
301.3
301.3
301.3
301.3
301.3
301.301
301.301
301.301
301.302
301.303
301.304
301.306
301.309
301.312
301.317
301.323
301.332
301.342
301.356
301.373
301.394
301.419
301.449
301.485
301.527
301.575
301.63
301.69
301.756
301.827
301.902
301.98
302.059
302.138
302.214
302.286
302.352
302.41
302.458
302.495
302.52
302.531
302.53
302.514
302.486
302.446
302.396
302.336
302.268
302.195
302.118
302.039
301.961
301.886
301.813
301.744
301.68
301.622
301.569
301.522
301.481
301.446
301.417
301.392
301.372
301.355
301.342
301.331
301.323
301.317
301.312
301.309
301.306
301.304
301.303
301.302
301.301
301.301
301.301
301.3
301.3
301.3
301.3
301.3
301.3
301.3
301.3
301.3
301.3
301.3
301.3
301.3
301.3
301.3
301.3
301.3
301.3
301.3
301.3
301.3
301.3
301.3
301.3
301.3
301.301
301.301
301.301
301.302
301.303
301.304
301.306
301.308
301.312
301.317
301.323
301.332
301.343
301.357
301.375
301.398
301.426
301.46
301.5
301.548
301.604
301.668
301.74
301.821
301.908
302.003
302.102
302.205
302.31
302.414
302.514
302.61
302.697
302.773
302.836
302.885
302.917
302.933
302.93
302.91
302.873
302.821
302.754
302.675
302.587
302.49
302.389
302.285
302.181
302.081
301.985
301.893
301.808
301.73
301.66
301.598
301.544
301.497
301.457
301.424
301.397
301.374
301.357
301.342
301.332
301.323
301.317
301.312
301.308
301.306
301.304
301.303
301.302
301.301
301.301
301.301
301.3
301.3
301.3
301.3
301.3
301.3
301.3
301.3
301.3
301.3
301.3
301.3
301.3
301.3
301.3
301.3
301.3
301.3
301.3
301.3
301.3
301.3
301.3
301.301
301.301
301.301
301.302
301.302
301.304
301.305
301.308
301.311
301.316
301.322
301.331
301.342
301.357
301.376
301.4
301.43
301.467
301.511
301.565
301.628
301.702
301.786
301.881
301.987
302.101
302.225
302.355
302.489
302.626
302.761
302.893
303.017
303.13
303.229
303.311
303.374
303.417
303.436
303.433
303.408
303.36
303.292
303.205
303.103
302.988
302.862
302.73
302.595
302.46
302.329
302.203
302.083
301.971
301.869
301.777
301.695
301.623
301.561
301.509
301.465
301.428
301.399
301.375
301.357
301.342
301.331
301.322
301.316
301.311
301.308
301.305
301.304
301.303
301.302
301.301
301.301
301.3
301.3
301.3
301.3
301.3
301.3
301.3
301.3
301.3
301.3
301.3
301.3
301.3
301.3
301.3
301.3
301.3
301.3
301.3
301.3
301.3
301.3
301.301
301.301
301.301
301.301
301.302
301.303
301.305
301.307
301.31
301.315
301.321
301.329
301.341
301.355
301.375
301.399
301.431
301.47
301.518
301.577
301.647
301.729
301.825
301.934
302.057
302.194
302.343
302.502
302.67
302.843
303.019
303.193
303.362
303.521
303.666
303.793
303.899
303.98
304.034
304.059
304.055
304.023
303.962
303.875
303.764
303.633
303.485
303.325
303.155
302.981
302.807
302.638
302.475
302.32
302.176
302.043
301.923
301.816
301.723
301.642
301.574
301.516
301.469
301.43
301.399
301.375
301.355
301.341
301.33
301.321
301.315
301.311
301.307
301.305
301.303
301.302
301.301
301.301
301.301
301.3
301.3
301.3
301.3
301.3
301.3
301.3
301.3
301.3
301.3
301.3
301.3
301.3
301.3
301.3
301.3
301.3
301.3
301.3
301.3
301.3
301.301
301.301
301.301
301.302
301.303
301.304
301.306
301.309
301.314
301.319
301.327
301.338
301.353
301.372
301.397
301.429
301.47
301.52
301.582
301.658
301.748
301.854
301.977
302.117
302.275
302.449
302.639
302.843
303.056
303.277
303.5
303.721
303.935
304.137
304.32
304.481
304.614
304.716
304.785
304.817
304.812
304.771
304.695
304.585
304.445
304.28
304.093
303.89
303.675
303.454
303.234
303.018
302.81
302.613
302.428
302.258
302.104
301.967
301.847
301.743
301.654
301.58
301.519
301.469
301.429
301.397
301.372
301.353
301.339
301.328
301.32
301.314
301.309
301.306
301.304
301.303
301.302
301.301
301.301
301.301
301.3
301.3
301.3
301.3
301.3
301.3
301.3
301.3
301.3
301.3
301.3
301.3
301.3
301.3
301.3
301.3
301.3
301.3
301.3
301.3
301.301
301.301
301.302
301.303
301.304
301.306
301.308
301.312
301.317
301.325
301.335
301.349
301.368
301.393
301.425
301.466
301.517
301.582
301.661
301.757
301.872
302.006
302.162
302.34
302.54
302.76
302.999
303.255
303.524
303.801
304.081
304.358
304.625
304.876
305.105
305.305
305.471
305.599
305.684
305.724
305.718
305.667
305.572
305.436
305.263
305.057
304.824
304.57
304.302
304.025
303.749
303.479
303.217
302.968
302.734
302.519
302.325
302.151
301.998
301.866
301.753
301.659
301.581
301.517
301.465
301.425
301.393
301.368
301.35
301.336
301.325
301.318
301.312
301.308
301.306
301.304
301.302
301.302
301.301
301.301
301.3
301.3
301.3
301.3
301.3
301.3
301.3
301.3
301.3
301.3
301.3
301.3
301.3
301.3
301.3
301.3
301.3
301.3
301.3
301.3
301.301
301.302
301.302
301.303
301.305
301.307
301.31
301.315
301.322
301.332
301.345
301.363
301.386
301.417
301.458
301.51
301.575
301.657
301.756
301.877
302.021
302.19
302.385
302.608
302.857
303.131
303.43
303.748
304.081
304.424
304.77
305.111
305.441
305.75
306.032
306.278
306.482
306.638
306.742
306.792
306.785
306.722
306.606
306.439
306.227
305.974
305.688
305.376
305.045
304.704
304.362
304.027
303.702
303.392
303.101
302.833
302.59
302.372
302.181
302.015
301.873
301.754
301.655
301.575
301.51
301.458
301.418
301.387
301.363
301.345
301.332
301.323
301.316
301.311
301.307
301.305
301.303
301.302
301.301
301.301
301.301
301.3
301.3
301.3
301.3
301.3
301.3
301.3
301.3
301.3
301.3
301.3
301.3
301.3
301.3
301.3
301.3
301.3
301.3
301.3
301.302
301.302
301.303
301.304
301.306
301.309
301.313
301.319
301.328
301.34
301.356
301.379
301.408
301.447
301.498
301.563
301.644
301.746
301.87
302.02
302.199
302.408
302.649
302.924
303.231
303.569
303.936
304.326
304.734
305.153
305.575
305.991
306.391
306.767
307.108
307.406
307.653
307.842
307.968
308.027
308.019
307.944
307.804
307.602
307.346
307.04
306.693
306.314
305.912
305.496
305.08
304.67
304.272
303.892
303.534
303.204
302.903
302.634
302.397
302.192
302.016
301.868
301.745
301.644
301.563
301.499
301.448
301.409
301.379
301.357
301.341
301.328
301.32
301.313
301.309
301.306
301.304
301.303
301.302
301.301
301.301
301.3
301.3
301.3
301.3
301.3
301.3
301.3
301.3
301.3
301.3
301.3
301.3
301.3
301.3
301.3
301.3
301.3
301.3
301.3
301.302
301.303
301.303
301.305
301.308
301.311
301.316
301.324
301.335
301.35
301.37
301.398
301.434
301.483
301.545
301.625
301.726
301.85
302.003
302.187
302.406
302.662
302.958
303.293
303.667
304.078
304.522
304.994
305.487
305.992
306.5
307
307.48
307.929
308.337
308.693
308.987
309.212
309.362
309.433
309.424
309.334
309.167
308.928
308.622
308.257
307.843
307.389
306.907
306.408
305.907
305.413
304.932
304.471
304.037
303.635
303.269
302.94
302.651
302.399
302.183
302.001
301.85
301.726
301.626
301.546
301.484
301.436
301.399
301.371
301.35
301.335
301.325
301.317
301.311
301.308
301.305
301.303
301.302
301.301
301.301
301.301
301.3
301.3
301.3
301.3
301.3
301.3
301.3
301.3
301.3
301.3
301.3
301.3
301.3
301.3
301.3
301.3
301.3
301.3
301.303
301.303
301.304
301.306
301.309
301.314
301.32
301.33
301.343
301.361
301.386
301.42
301.465
301.524
301.6
301.697
301.82
301.972
302.157
302.381
302.646
302.956
303.312
303.715
304.165
304.658
305.19
305.755
306.342
306.943
307.546
308.138
308.706
309.237
309.717
310.135
310.481
310.745
310.921
311.005
310.994
310.889
310.693
310.412
310.052
309.623
309.135
308.6
308.03
307.439
306.843
306.256
305.682
305.131
304.611
304.129
303.688
303.292
302.942
302.637
302.376
302.155
301.971
301.821
301.699
301.602
301.525
301.466
301.421
301.387
301.362
301.344
301.33
301.321
301.314
301.309
301.306
301.304
301.303
301.302
301.301
301.301
301.3
301.3
301.3
301.3
301.3
301.3
301.3
301.3
301.3
301.3
301.3
301.3
301.3
301.3
301.3
301.3
301.3
301.3
301.303
301.304
301.305
301.308
301.311
301.317
301.325
301.336
301.352
301.374
301.404
301.445
301.5
301.571
301.663
301.78
301.928
302.11
302.333
302.601
302.918
303.288
303.713
304.193
304.727
305.312
305.941
306.606
307.298
308.004
308.71
309.402
310.064
310.682
311.24
311.725
312.126
312.431
312.635
312.731
312.718
312.597
312.37
312.044
311.628
311.13
310.563
309.94
309.276
308.585
307.887
307.197
306.522
305.872
305.257
304.685
304.162
303.69
303.273
302.908
302.595
302.331
302.11
301.929
301.782
301.665
301.573
301.502
301.447
301.406
301.375
301.353
301.337
301.325
301.317
301.311
301.308
301.305
301.303
301.302
301.301
301.301
301.3
301.3
301.3
301.3
301.3
301.3
301.3
301.3
301.3
301.3
301.3
301.3
301.3
301.3
301.3
301.3
301.3
301.3
301.304
301.305
301.306
301.309
301.314
301.32
301.33
301.343
301.362
301.389
301.425
301.474
301.539
301.624
301.734
301.874
302.049
302.266
302.53
302.847
303.223
303.659
304.16
304.724
305.351
306.035
306.77
307.545
308.348
309.166
309.982
310.78
311.542
312.251
312.891
313.447
313.904
314.253
314.485
314.595
314.579
314.44
314.182
313.809
313.333
312.763
312.113
311.398
310.633
309.836
309.03
308.23
307.446
306.689
305.971
305.302
304.688
304.133
303.642
303.211
302.841
302.528
302.266
302.05
301.876
301.736
301.627
301.541
301.476
301.427
301.39
301.364
301.344
301.33
301.32
301.314
301.309
301.306
301.304
301.302
301.302
301.301
301.301
301.3
301.3
301.3
301.3
301.3
301.3
301.3
301.3
301.3
301.3
301.3
301.3
301.3
301.3
301.3
301.3
301.3
301.305
301.306
301.308
301.311
301.316
301.324
301.335
301.352
301.374
301.406
301.449
301.506
301.583
301.683
301.813
301.977
302.183
302.438
302.748
303.119
303.558
304.067
304.65
305.305
306.032
306.823
307.67
308.561
309.483
310.419
311.35
312.258
313.124
313.928
314.652
315.279
315.795
316.188
316.448
316.571
316.553
316.396
316.104
315.684
315.145
314.502
313.766
312.956
312.087
311.18
310.26
309.345
308.446
307.575
306.747
305.974
305.262
304.619
304.046
303.545
303.112
302.745
302.438
302.185
301.98
301.816
301.686
301.586
301.509
301.45
301.407
301.375
301.352
301.336
301.324
301.316
301.311
301.307
301.305
301.303
301.302
301.301
301.301
301.3
301.3
301.3
301.3
301.3
301.3
301.3
301.3
301.3
301.3
301.3
301.3
301.3
301.3
301.3
301.3
301.3
301.305
301.307
301.309
301.313
301.319
301.328
301.342
301.36
301.387
301.424
301.474
301.542
301.631
301.748
301.899
302.09
302.33
302.626
302.985
303.415
303.921
304.508
305.178
305.931
306.763
307.666
308.631
309.644
310.689
311.746
312.796
313.817
314.788
315.687
316.496
317.195
317.769
318.206
318.495
318.63
318.609
318.433
318.108
317.639
317.039
316.32
315.498
314.591
313.617
312.597
311.561
310.528
309.509
308.52
307.578
306.694
305.88
305.142
304.483
303.905
303.406
302.981
302.625
302.332
302.093
301.902
301.751
301.634
301.544
301.476
301.426
301.388
301.361
301.342
301.329
301.319
301.313
301.308
301.305
301.303
301.302
301.301
301.301
301.3
301.3
301.3
301.3
301.3
301.3
301.3
301.3
301.3
301.3
301.3
301.3
301.3
301.3
301.3
301.3
301.3
301.306
301.308
301.31
301.315
301.322
301.333
301.348
301.37
301.401
301.444
301.502
301.58
301.683
301.818
301.992
302.212
302.487
302.827
303.238
303.73
304.308
304.977
305.739
306.593
307.534
308.554
309.64
310.778
311.947
313.128
314.297
315.431
316.507
317.502
318.394
319.164
319.796
320.275
320.591
320.738
320.714
320.519
320.16
319.643
318.982
318.189
317.281
316.277
315.198
314.065
312.912
311.759
310.619
309.51
308.45
307.453
306.532
305.695
304.947
304.289
303.719
303.233
302.826
302.489
302.215
301.995
301.821
301.686
301.583
301.504
301.446
301.403
301.371
301.349
301.333
301.322
301.315
301.31
301.306
301.304
301.302
301.302
301.301
301.301
301.3
301.3
301.3
301.3
301.3
301.3
301.3
301.3
301.3
301.3
301.3
301.3
301.3
301.3
301.3
301.3
301.307
301.309
301.312
301.317
301.325
301.338
301.355
301.381
301.416
301.465
301.531
301.62
301.738
301.892
302.09
302.34
302.653
303.038
303.504
304.06
304.713
305.466
306.323
307.281
308.334
309.472
310.682
311.944
313.238
314.541
315.828
317.073
318.252
319.339
320.313
321.152
321.838
322.358
322.7
322.858
322.83
322.617
322.224
321.661
320.939
320.074
319.083
317.985
316.802
315.559
314.29
313.018
311.758
310.529
309.35
308.239
307.21
306.272
305.431
304.69
304.047
303.497
303.036
302.654
302.343
302.093
301.895
301.741
301.623
301.534
301.467
301.417
301.382
301.356
301.338
301.326
301.317
301.311
301.307
301.305
301.303
301.302
301.301
301.301
301.3
301.3
301.3
301.3
301.3
301.3
301.3
301.3
301.3
301.3
301.3
301.3
301.3
301.3
301.3
301.3
301.308
301.31
301.314
301.32
301.329
301.343
301.363
301.391
301.431
301.487
301.562
301.662
301.795
301.969
302.192
302.474
302.825
303.257
303.779
304.401
305.129
305.969
306.921
307.984
309.149
310.405
311.736
313.121
314.538
315.96
317.362
318.714
319.992
321.168
322.218
323.121
323.859
324.417
324.783
324.951
324.918
324.687
324.263
323.655
322.876
321.942
320.87
319.682
318.4
317.051
315.67
314.283
312.905
311.557
310.262
309.037
307.9
306.86
305.926
305.101
304.384
303.77
303.253
302.825
302.475
302.195
301.972
301.799
301.665
301.564
301.489
301.433
301.393
301.364
301.343
301.329
301.319
301.313
301.308
301.305
301.303
301.302
301.301
301.301
301.3
301.3
301.3
301.3
301.3
301.3
301.3
301.3
301.3
301.3
301.3
301.3
301.3
301.3
301.3
301.3
301.309
301.311
301.315
301.322
301.333
301.348
301.371
301.403
301.447
301.509
301.593
301.705
301.854
302.047
302.295
302.609
302.999
303.479
304.057
304.745
305.549
306.474
307.522
308.687
309.963
311.334
312.783
314.287
315.822
317.358
318.868
320.323
321.693
322.951
324.073
325.036
325.822
326.413
326.801
326.977
326.94
326.691
326.238
325.588
324.756
323.757
322.61
321.337
319.962
318.512
317.025
315.529
314.038
312.577
311.168
309.833
308.589
307.45
306.424
305.515
304.723
304.045
303.473
302.998
302.61
302.298
302.05
301.857
301.708
301.595
301.511
301.449
301.404
301.371
301.348
301.332
301.322
301.314
301.309
301.306
301.304
301.302
301.301
301.301
301.301
301.3
301.3
301.3
301.3
301.3
301.3
301.3
301.3
301.3
301.3
301.3
301.3
301.3
301.3
301.3
301.31
301.312
301.317
301.324
301.336
301.353
301.378
301.414
301.463
301.531
301.624
301.748
301.912
302.125
302.399
302.744
303.173
303.699
304.332
305.085
305.963
306.972
308.112
309.377
310.758
312.24
313.801
315.419
317.064
318.708
320.319
321.867
323.323
324.657
325.844
326.86
327.688
328.31
328.716
328.899
328.857
328.592
328.111
327.423
326.542
325.484
324.269
322.919
321.458
319.915
318.33
316.732
315.136
313.567
312.05
310.61
309.264
308.029
306.913
305.923
305.059
304.317
303.691
303.17
302.744
302.4
302.128
301.915
301.751
301.626
301.533
301.465
301.415
301.379
301.354
301.336
301.324
301.316
301.31
301.306
301.304
301.303
301.302
301.301
301.301
301.3
301.3
301.3
301.3
301.3
301.3
301.3
301.3
301.3
301.3
301.3
301.3
301.3
301.3
301.3
301.311
301.314
301.319
301.327
301.34
301.359
301.386
301.425
301.479
301.553
301.655
301.79
301.969
302.202
302.499
302.875
303.341
303.912
304.599
305.414
306.363
307.452
308.679
310.038
311.519
313.104
314.77
316.492
318.239
319.981
321.685
323.318
324.85
326.251
327.495
328.559
329.423
330.071
330.493
330.681
330.635
330.355
329.849
329.127
328.203
327.093
325.817
324.397
322.86
321.232
319.559
317.867
316.175
314.507
312.891
311.351
309.91
308.584
307.384
306.316
305.383
304.58
303.901
303.336
302.873
302.5
302.203
301.971
301.793
301.657
301.555
301.48
301.426
301.386
301.359
301.339
301.326
301.317
301.311
301.307
301.304
301.303
301.302
301.301
301.301
301.3
301.3
301.3
301.3
301.3
301.3
301.3
301.3
301.3
301.3
301.3
301.3
301.3
301.3
301.3
301.312
301.315
301.32
301.329
301.343
301.363
301.393
301.435
301.494
301.574
301.684
301.83
302.023
302.274
302.595
302.999
303.501
304.114
304.851
305.724
306.739
307.901
309.209
310.656
312.227
313.906
315.668
317.484
319.323
321.153
322.939
324.647
326.246
327.705
328.999
330.102
330.996
331.666
332.1
332.293
332.241
331.949
331.422
330.67
329.709
328.554
327.225
325.745
324.141
322.44
320.688
318.914
317.134
315.377
313.671
312.042
310.513
309.103
307.824
306.685
305.687
304.828
304.1
303.493
302.996
302.594
302.275
302.025
301.832
301.686
301.576
301.495
301.436
301.394
301.364
301.343
301.328
301.319
301.312
301.308
301.305
301.303
301.302
301.301
301.301
301.3
301.3
301.3
301.3
301.3
301.3
301.3
301.3
301.3
301.3
301.3
301.3
301.3
301.3
301.3
301.313
301.316
301.322
301.331
301.346
301.368
301.4
301.445
301.507
301.594
301.711
301.867
302.073
302.341
302.682
303.113
303.647
304.298
305.081
306.006
307.082
308.31
309.691
311.215
312.868
314.63
316.475
318.374
320.294
322.199
324.056
325.829
327.484
328.993
330.327
331.463
332.382
333.068
333.512
333.707
333.652
333.348
332.803
332.027
331.035
329.842
328.47
326.94
325.279
323.516
321.696
319.851
317.996
316.16
314.374
312.666
311.059
309.574
308.225
307.021
305.965
305.054
304.281
303.637
303.108
302.68
302.34
302.074
301.868
301.712
301.595
301.508
301.445
301.4
301.368
301.346
301.33
301.32
301.313
301.308
301.305
301.303
301.302
301.301
301.301
301.3
301.3
301.3
301.3
301.3
301.3
301.3
301.3
301.3
301.3
301.3
301.3
301.3
301.3
301.3
301.314
301.317
301.323
301.333
301.349
301.372
301.406
301.453
301.52
301.611
301.735
301.9
302.117
302.4
302.76
303.214
303.776
304.461
305.284
306.255
307.382
308.669
310.111
311.702
313.425
315.258
317.174
319.143
321.131
323.1
325.016
326.841
328.544
330.092
331.459
332.62
333.558
334.258
334.709
334.906
334.846
334.533
333.974
333.179
332.162
330.94
329.533
327.963
326.256
324.441
322.566
320.661
318.742
316.84
314.986
313.209
311.535
309.985
308.576
307.315
306.208
305.252
304.441
303.763
303.206
302.756
302.398
302.117
301.9
301.735
301.612
301.52
301.454
301.406
301.372
301.348
301.332
301.321
301.314
301.309
301.305
301.303
301.302
301.301
301.301
301.3
301.3
301.3
301.3
301.3
301.3
301.3
301.3
301.3
301.3
301.3
301.3
301.3
301.3
301.3
301.315
301.318
301.324
301.335
301.351
301.376
301.411
301.46
301.53
301.625
301.755
301.927
302.155
302.449
302.825
303.298
303.884
304.598
305.453
306.462
307.633
308.967
310.461
312.106
313.885
315.776
317.75
319.776
321.817
323.838
325.8
327.668
329.407
330.986
332.378
333.559
334.511
335.22
335.676
335.874
335.811
335.492
334.922
334.112
333.077
331.833
330.399
328.799
327.056
325.201
323.282
321.329
319.359
317.403
315.494
313.661
311.931
310.328
308.868
307.561
306.411
305.418
304.574
303.869
303.289
302.82
302.446
302.153
301.927
301.755
301.626
301.53
301.461
301.411
301.375
301.351
301.334
301.322
301.314
301.309
301.306
301.304
301.302
301.301
301.301
301.3
301.3
301.3
301.3
301.3
301.3
301.3
301.3
301.3
301.3
301.3
301.3
301.3
301.3
301.3
301.315
301.318
301.325
301.336
301.353
301.378
301.415
301.466
301.538
301.637
301.77
301.949
302.184
302.488
302.876
303.364
303.968
304.704
305.585
306.624
307.827
309.197
310.731
312.417
314.239
316.174
318.191
320.259
322.341
324.399
326.396
328.295
330.061
331.662
333.072
334.267
335.23
335.945
336.405
336.603
336.539
336.215
335.638
334.819
333.771
332.512
331.06
329.437
327.669
325.785
323.833
321.843
319.835
317.838
315.886
314.01
312.238
310.593
309.094
307.751
306.569
305.547
304.677
303.951
303.353
302.869
302.484
302.181
301.948
301.77
301.636
301.538
301.466
301.414
301.378
301.352
301.335
301.323
301.315
301.309
301.306
301.304
301.302
301.301
301.301
301.3
301.3
301.3
301.3
301.3
301.3
301.3
301.3
301.3
301.3
301.3
301.3
301.3
301.3
301.3
301.316
301.319
301.326
301.337
301.354
301.38
301.417
301.47
301.544
301.645
301.781
301.964
302.204
302.515
302.911
303.41
304.026
304.777
305.675
306.734
307.959
309.354
310.914
312.628
314.478
316.441
318.487
320.583
322.691
324.774
326.794
328.713
330.497
332.113
333.535
334.739
335.708
336.429
336.891
337.091
337.026
336.7
336.119
335.295
334.24
332.971
331.508
329.872
328.088
326.184
324.21
322.196
320.161
318.136
316.154
314.249
312.447
310.774
309.248
307.881
306.676
305.634
304.748
304.006
303.396
302.903
302.509
302.2
301.962
301.78
301.644
301.543
301.47
301.417
301.38
301.353
301.335
301.323
301.315
301.31
301.306
301.304
301.302
301.301
301.301
301.301
301.3
301.3
301.3
301.3
301.3
301.3
301.3
301.3
301.3
301.3
301.3
301.3
301.3
301.3
301.316
301.319
301.326
301.337
301.355
301.381
301.419
301.472
301.547
301.649
301.787
301.972
302.214
302.529
302.93
303.433
304.056
304.814
305.721
306.79
308.026
309.433