/*--------------------------------*- C++ -*----------------------------------*\
| =========                 |                                                 |
| \\      /  F ield         | OpenFOAM: The Open Source CFD Toolbox           |
|  \\    /   O peration     | Version:  v2012                                 |
|   \\  /    A nd           | Website:  www.openfoam.com                      |
|    \\/     M anipulation  |                                                 |
\*---------------------------------------------------------------------------*/
FoamFile
{
    version     2.0;
    format      ascii;
    class       Cloud<passiveParticle>;
    location    "0.0003/lagrangian/DTRMCloud";
    object      positions;
}
// * * * * * * * * * * * * * * * * * * * * * * * * * * * * * * * * * * * * * //

1500
(
(0.000200866 0.000201142 0.00014) 166040
(0.000201002 0.000201024 0.00014) 166040
(0.000201123 0.000200891 0.00014) 166040
(0.000201226 0.000200743 0.00014) 166040
(0.000201309 0.000200583 0.00014) 166040
(0.000201372 0.000200415 0.00014) 166040
(0.000201413 0.00020024 0.00014) 166040
(0.000201432 0.000200061 0.00014) 166040
(0.000201428 0.00019988 0.00014) 165940
(0.000201402 0.000199702 0.00014) 165940
(0.000201354 0.000199529 0.00014) 165940
(0.000201284 0.000199363 0.00014) 165940
(0.000201194 0.000199207 0.00014) 165940
(0.000201085 0.000199064 0.00014) 165940
(0.000200959 0.000198935 0.00014) 165940
(0.000200818 0.000198823 0.00014) 165940
(0.000200664 0.00019873 0.00014) 165940
(0.0002005 0.000198657 0.00014) 165940
(0.000200328 0.000198605 0.00014) 165940
(0.00020015 0.000198574 0.00014) 165940
(0.000199971 0.000198567 0.00014) 165939
(0.000199791 0.000198582 0.00014) 165939
(0.000199615 0.000198619 0.00014) 165939
(0.000199445 0.000198678 0.00014) 165939
(0.000199284 0.000198758 0.00014) 165939
(0.000199134 0.000198858 0.00014) 165939
(0.000198997 0.000198975 0.00014) 165939
(0.000198877 0.000199109 0.00014) 165939
(0.000198774 0.000199257 0.00014) 165939
(0.000198691 0.000199417 0.00014) 165939
(0.000198628 0.000199585 0.00014) 165939
(0.000198587 0.00019976 0.00014) 165939
(0.000198568 0.00019994 0.00014) 165939
(0.000198572 0.000200119 0.00014) 166039
(0.000198598 0.000200297 0.00014) 166039
(0.000198646 0.000200471 0.00014) 166039
(0.000198716 0.000200637 0.00014) 166039
(0.000198806 0.000200793 0.00014) 166039
(0.000198915 0.000200936 0.00014) 166039
(0.000199041 0.000201065 0.00014) 166039
(0.000199182 0.000201177 0.00014) 166039
(0.000199336 0.00020127 0.00014) 166039
(0.0001995 0.000201343 0.00014) 166039
(0.000199672 0.000201395 0.00014) 166039
(0.00019985 0.000201425 0.00014) 166039
(0.00020003 0.000201433 0.00014) 166040
(0.000200209 0.000201418 0.00014) 166040
(0.000200385 0.000201381 0.00014) 166040
(0.000200555 0.000201322 0.00014) 166040
(0.000200716 0.000201242 0.00014) 166040
(0.000202599 0.000203426 0.00014) 166040
(0.000203007 0.000203073 0.00014) 166040
(0.000203369 0.000202672 0.00014) 166040
(0.000203677 0.000202229 0.00014) 166040
(0.000203927 0.00020175 0.00014) 166040
(0.000204116 0.000201244 0.00014) 166040
(0.00020424 0.000200719 0.00014) 166040
(0.000204296 0.000200182 0.00014) 166040
(0.000204285 0.000199642 0.00014) 165940
(0.000204206 0.000199107 0.00014) 165940
(0.000204061 0.000198587 0.00014) 165940
(0.000203852 0.000198089 0.00014) 165940
(0.000203582 0.000197622 0.00014) 165940
(0.000203256 0.000197191 0.00014) 165940
(0.000202878 0.000196805 0.00014) 165940
(0.000202455 0.00019647 0.00014) 165940
(0.000201994 0.00019619 0.00014) 165940
(0.0002015 0.00019597 0.00014) 165940
(0.000200983 0.000195814 0.00014) 165940
(0.000200451 0.000195724 0.00014) 165940
(0.000199912 0.000195701 0.00014) 165939
(0.000199373 0.000195746 0.00014) 165939
(0.000198845 0.000195858 0.00014) 165939
(0.000198335 0.000196035 0.00014) 165939
(0.000197851 0.000196275 0.00014) 165939
(0.000197401 0.000196574 0.00014) 165939
(0.000196992 0.000196927 0.00014) 165939
(0.000196631 0.000197328 0.00014) 165939
(0.000196322 0.000197771 0.00014) 165939
(0.000196072 0.00019825 0.00014) 165939
(0.000195884 0.000198756 0.00014) 165939
(0.000195761 0.000199282 0.00014) 165939
(0.000195704 0.000199819 0.00014) 165939
(0.000195715 0.000200358 0.00014) 166039
(0.000195794 0.000200893 0.00014) 166039
(0.000195939 0.000201413 0.00014) 166039
(0.000196148 0.000201911 0.00014) 166039
(0.000196418 0.000202378 0.00014) 166039
(0.000196744 0.000202809 0.00014) 166039
(0.000197122 0.000203195 0.00014) 166039
(0.000197545 0.00020353 0.00014) 166039
(0.000198007 0.00020381 0.00014) 166039
(0.0001985 0.00020403 0.00014) 166039
(0.000199017 0.000204186 0.00014) 166039
(0.000199549 0.000204276 0.00014) 166039
(0.000200089 0.000204299 0.00014) 166040
(0.000200627 0.000204254 0.00014) 166040
(0.000201155 0.000204142 0.00014) 166040
(0.000201665 0.000203965 0.00014) 166040
(0.000202149 0.000203725 0.00014) 166040
(0.000204331 0.00020571 0.00014) 166140
(0.000205013 0.000205122 0.00014) 166141
(0.000205615 0.000204453 0.00014) 166041
(0.000206129 0.000203715 0.00014) 166041
(0.000206546 0.000202917 0.00014) 166041
(0.00020686 0.000202074 0.00014) 166041
(0.000207066 0.000201198 0.00014) 166041
(0.00020716 0.000200302 0.00014) 166041
(0.000207142 0.000199403 0.00014) 165941
(0.000207011 0.000198512 0.00014) 165941
(0.000206769 0.000197645 0.00014) 165941
(0.00020642 0.000196815 0.00014) 165941
(0.000205971 0.000196036 0.00014) 165941
(0.000205427 0.000195319 0.00014) 165941
(0.000204797 0.000194676 0.00014) 165840
(0.000204092 0.000194117 0.00014) 165840
(0.000203322 0.00019365 0.00014) 165840
(0.0002025 0.000193284 0.00014) 165840
(0.000201639 0.000193023 0.00014) 165840
(0.000200752 0.000192873 0.00014) 165840
(0.000199852 0.000192835 0.00014) 165839
(0.000198956 0.00019291 0.00014) 165839
(0.000198075 0.000193097 0.00014) 165839
(0.000197225 0.000193393 0.00014) 165839
(0.000196419 0.000193792 0.00014) 165839
(0.000195669 0.00019429 0.00014) 165839
(0.000194988 0.000194878 0.00014) 165838
(0.000194385 0.000195547 0.00014) 165938
(0.000193871 0.000196285 0.00014) 165938
(0.000193454 0.000197083 0.00014) 165938
(0.00019314 0.000197926 0.00014) 165938
(0.000192934 0.000198802 0.00014) 165938
(0.00019284 0.000199697 0.00014) 165938
(0.000192858 0.000200597 0.00014) 166038
(0.000192989 0.000201488 0.00014) 166038
(0.000193231 0.000202355 0.00014) 166038
(0.00019358 0.000203184 0.00014) 166038
(0.000194029 0.000203964 0.00014) 166038
(0.000194573 0.000204681 0.00014) 166038
(0.000195203 0.000205324 0.00014) 166139
(0.000195908 0.000205884 0.00014) 166139
(0.000196678 0.00020635 0.00014) 166139
(0.0001975 0.000206716 0.00014) 166139
(0.000198361 0.000206977 0.00014) 166139
(0.000199248 0.000207127 0.00014) 166139
(0.000200148 0.000207165 0.00014) 166140
(0.000201045 0.00020709 0.00014) 166140
(0.000201925 0.000206903 0.00014) 166140
(0.000202775 0.000206608 0.00014) 166140
(0.000203581 0.000206208 0.00014) 166140
(0.000206063 0.000207994 0.00014) 166141
(0.000207018 0.000207171 0.00014) 166141
(0.000207861 0.000206235 0.00014) 166141
(0.00020858 0.0002052 0.00014) 166141
(0.000209164 0.000204084 0.00014) 166041
(0.000209604 0.000202903 0.00014) 166041
(0.000209892 0.000201677 0.00014) 166041
(0.000210024 0.000200423 0.00014) 166042
(0.000209998 0.000199164 0.00014) 165941
(0.000209815 0.000197917 0.00014) 165941
(0.000209476 0.000196704 0.00014) 165941
(0.000208988 0.000195542 0.00014) 165941
(0.000208359 0.00019445 0.00014) 165841
(0.000207597 0.000193447 0.00014) 165841
(0.000206716 0.000192546 0.00014) 165841
(0.000205729 0.000191763 0.00014) 165841
(0.000204651 0.00019111 0.00014) 165840
(0.0002035 0.000190597 0.00014) 165840
(0.000202294 0.000190232 0.00014) 165840
(0.000201052 0.000190022 0.00014) 165840
(0.000199793 0.000189969 0.00014) 165739
(0.000198538 0.000190074 0.00014) 165839
(0.000197305 0.000190335 0.00014) 165839
(0.000196115 0.000190749 0.00014) 165839
(0.000194986 0.000191309 0.00014) 165838
(0.000193937 0.000192006 0.00014) 165838
(0.000192983 0.000192829 0.00014) 165838
(0.000192139 0.000193765 0.00014) 165838
(0.00019142 0.0001948 0.00014) 165838
(0.000190835 0.000195916 0.00014) 165938
(0.000190396 0.000197097 0.00014) 165938
(0.000190108 0.000198323 0.00014) 165938
(0.000189976 0.000199576 0.00014) 165937
(0.000190002 0.000200836 0.00014) 166038
(0.000190185 0.000202083 0.00014) 166038
(0.000190524 0.000203296 0.00014) 166038
(0.000191012 0.000204458 0.00014) 166038
(0.000191641 0.00020555 0.00014) 166138
(0.000192403 0.000206553 0.00014) 166138
(0.000193284 0.000207454 0.00014) 166138
(0.000194271 0.000208237 0.00014) 166138
(0.000195349 0.00020889 0.00014) 166139
(0.0001965 0.000209403 0.00014) 166139
(0.000197706 0.000209767 0.00014) 166139
(0.000198948 0.000209978 0.00014) 166139
(0.000200207 0.000210031 0.00014) 166240
(0.000201462 0.000209926 0.00014) 166140
(0.000202695 0.000209665 0.00014) 166140
(0.000203885 0.000209251 0.00014) 166140
(0.000205014 0.000208691 0.00014) 166141
(0.000207796 0.000210278 0.00014) 166241
(0.000209022 0.00020922 0.00014) 166141
(0.000210107 0.000208016 0.00014) 166142
(0.000211032 0.000206686 0.00014) 166142
(0.000211783 0.000205251 0.00014) 166142
(0.000212348 0.000203733 0.00014) 166042
(0.000212719 0.000202156 0.00014) 166042
(0.000212889 0.000200545 0.00014) 166042
(0.000212855 0.000198925 0.00014) 165942
(0.000212619 0.000197322 0.00014) 165942
(0.000212184 0.000195762 0.00014) 165942
(0.000211557 0.000194268 0.00014) 165842
(0.000210747 0.000192865 0.00014) 165842
(0.000209768 0.000191574 0.00014) 165841
(0.000208635 0.000190416 0.00014) 165841
(0.000207366 0.000189409 0.00014) 165741
(0.00020598 0.00018857 0.00014) 165741
(0.000204501 0.000187911 0.00014) 165740
(0.00020295 0.000187442 0.00014) 165740
(0.000201353 0.000187171 0.00014) 165740
(0.000199734 0.000187103 0.00014) 165739
(0.00019812 0.000187238 0.00014) 165739
(0.000196535 0.000187574 0.00014) 165739
(0.000195005 0.000188106 0.00014) 165739
(0.000193554 0.000188826 0.00014) 165738
(0.000192204 0.000189722 0.00014) 165738
(0.000190977 0.00019078 0.00014) 165838
(0.000189893 0.000191984 0.00014) 165837
(0.000188968 0.000193314 0.00014) 165837
(0.000188217 0.000194749 0.00014) 165837
(0.000187652 0.000196268 0.00014) 165937
(0.000187282 0.000197845 0.00014) 165937
(0.000187112 0.000199456 0.00014) 165937
(0.000187145 0.000201075 0.00014) 166037
(0.000187381 0.000202678 0.00014) 166037
(0.000187816 0.000204238 0.00014) 166037
(0.000188443 0.000205732 0.00014) 166137
(0.000189253 0.000207135 0.00014) 166137
(0.000190232 0.000208426 0.00014) 166138
(0.000191365 0.000209584 0.00014) 166138
(0.000192634 0.00021059 0.00014) 166238
(0.00019402 0.00021143 0.00014) 166238
(0.000195499 0.000212089 0.00014) 172239
(0.00019705 0.000212558 0.00014) 172239
(0.000198647 0.000212829 0.00014) 166239
(0.000200266 0.000212897 0.00014) 166240
(0.00020188 0.000212762 0.00014) 166240
(0.000203465 0.000212426 0.00014) 166240
(0.000204995 0.000211894 0.00014) 166240
(0.000206446 0.000211174 0.00014) 166241
(0.000209528 0.000212562 0.00014) 166241
(0.000211028 0.000211269 0.00014) 166242
(0.000212353 0.000209798 0.00014) 166142
(0.000213483 0.000208172 0.00014) 166142
(0.000214401 0.000206418 0.00014) 166142
(0.000215092 0.000204562 0.00014) 166043
(0.000215545 0.000202635 0.00014) 166043
(0.000215753 0.000200666 0.00014) 166043
(0.000215712 0.000198686 0.00014) 165943
(0.000215423 0.000196727 0.00014) 165943
(0.000214891 0.00019482 0.00014) 165842
(0.000214125 0.000192995 0.00014) 165842
(0.000213135 0.000191279 0.00014) 165842
(0.000211939 0.000189702 0.00014) 165742
(0.000210554 0.000188287 0.00014) 165742
(0.000209002 0.000187056 0.00014) 165741
(0.000207309 0.00018603 0.00014) 165741
(0.000205501 0.000185224 0.00014) 165741
(0.000203605 0.000184651 0.00014) 165640
(0.000201653 0.00018432 0.00014) 165640
(0.000199675 0.000184237 0.00014) 165639
(0.000197702 0.000184402 0.00014) 171639
(0.000195765 0.000184813 0.00014) 171639
(0.000193895 0.000185463 0.00014) 165738
(0.000192121 0.000186343 0.00014) 165738
(0.000190472 0.000187438 0.00014) 165738
(0.000188972 0.000188731 0.00014) 165737
(0.000187647 0.000190202 0.00014) 165837
(0.000186516 0.000191828 0.00014) 165837
(0.000185599 0.000193582 0.00014) 165837
(0.000184908 0.000195438 0.00014) 165936
(0.000184455 0.000197365 0.00014) 165936
(0.000184247 0.000199334 0.00014) 165936
(0.000184288 0.000201314 0.00014) 166036
(0.000184577 0.000203273 0.00014) 166036
(0.000185109 0.00020518 0.00014) 166137
(0.000185875 0.000207006 0.00014) 166137
(0.000186865 0.000208721 0.00014) 166137
(0.000188061 0.000210298 0.00014) 166237
(0.000189446 0.000211714 0.00014) 166237
(0.000190997 0.000212944 0.00014) 166238
(0.000192691 0.00021397 0.00014) 166238
(0.000194499 0.000214776 0.00014) 166238
(0.000196394 0.000215349 0.00014) 166339
(0.000198347 0.00021568 0.00014) 166339
(0.000200325 0.000215763 0.00014) 166340
(0.000202298 0.000215598 0.00014) 166340
(0.000204235 0.000215187 0.00014) 166340
(0.000206105 0.000214537 0.00014) 166241
(0.000207879 0.000213657 0.00014) 166241
(0.000211261 0.000214846 0.00014) 166242
(0.000213033 0.000213317 0.00014) 166242
(0.000214599 0.000211579 0.00014) 166242
(0.000215935 0.000209658 0.00014) 166143
(0.00021702 0.000207585 0.00014) 166143
(0.000217836 0.000205392 0.00014) 166143
(0.000218371 0.000203113 0.00014) 166043
(0.000218617 0.000200787 0.00014) 166043
(0.000218569 0.000198447 0.00014) 165943
(0.000218228 0.000196132 0.00014) 165943
(0.000217599 0.000193878 0.00014) 165843
(0.000216693 0.00019172 0.00014) 165843
(0.000215523 0.000189694 0.00014) 165743
(0.000214109 0.000187829 0.00014) 165742
(0.000212473 0.000186157 0.00014) 165742
(0.000210639 0.000184703 0.00014) 165642
(0.000208638 0.00018349 0.00014) 165641
(0.000206501 0.000182537 0.00014) 165641
(0.000204261 0.00018186 0.00014) 165640
(0.000201954 0.000181469 0.00014) 165640
(0.000199616 0.000181371 0.00014) 165639
(0.000197284 0.000181566 0.00014) 165639
(0.000194995 0.000182051 0.00014) 165638
(0.000192785 0.00018282 0.00014) 165638
(0.000190689 0.00018386 0.00014) 165638
(0.000188739 0.000185154 0.00014) 165737
(0.000186967 0.000186683 0.00014) 165737
(0.000185401 0.000188421 0.00014) 165737
(0.000184065 0.000190342 0.00014) 165836
(0.00018298 0.000192415 0.00014) 165836
(0.000182164 0.000194608 0.00014) 165836
(0.000181629 0.000196886 0.00014) 165936
(0.000181383 0.000199213 0.00014) 165936
(0.000181432 0.000201553 0.00014) 166036
(0.000181773 0.000203868 0.00014) 166036
(0.000182401 0.000206122 0.00014) 166136
(0.000183307 0.000208279 0.00014) 166136
(0.000184476 0.000210306 0.00014) 166236
(0.000185891 0.000212171 0.00014) 166237
(0.000187527 0.000213843 0.00014) 166237
(0.000189361 0.000215297 0.00014) 166337
(0.000191362 0.00021651 0.00014) 166338
(0.000193499 0.000217463 0.00014) 172338
(0.000195739 0.00021814 0.00014) 166339
(0.000198046 0.000218531 0.00014) 166339
(0.000200384 0.000218629 0.00014) 166340
(0.000202716 0.000218434 0.00014) 166340
(0.000205005 0.000217949 0.00014) 166341
(0.000207215 0.00021718 0.00014) 166341
(0.000209311 0.00021614 0.00014) 166341
(0.000212993 0.00021713 0.00014) 166342
(0.000215038 0.000215366 0.00014) 166343
(0.000216845 0.00021336 0.00014) 166243
(0.000218387 0.000211144 0.00014) 166243
(0.000219638 0.000208751 0.00014) 166143
(0.00022058 0.000206221 0.00014) 166144
(0.000221198 0.000203593 0.00014) 166044
(0.000221481 0.000200908 0.00014) 166044
(0.000221425 0.000198208 0.00014) 165944
(0.000221032 0.000195537 0.00014) 165944
(0.000220306 0.000192936 0.00014) 165844
(0.000219261 0.000190447 0.00014) 165843
(0.000217912 0.000188108 0.00014) 165743
(0.00021628 0.000185957 0.00014) 165743
(0.000214392 0.000184027 0.00014) 165642
(0.000212276 0.000182349 0.00014) 165642
(0.000209967 0.00018095 0.00014) 165641
(0.000207501 0.000179851 0.00014) 165541
(0.000204917 0.00017907 0.00014) 165540
(0.000202255 0.000178619 0.00014) 165540
(0.000199557 0.000178505 0.00014) 165539
(0.000196866 0.00017873 0.00014) 165539
(0.000194225 0.00017929 0.00014) 165538
(0.000191675 0.000180177 0.00014) 165638
(0.000189256 0.000181377 0.00014) 165637
(0.000187007 0.00018287 0.00014) 165637
(0.000184962 0.000184634 0.00014) 165636
(0.000183155 0.00018664 0.00014) 165736
(0.000181613 0.000188856 0.00014) 165736
(0.000180362 0.000191249 0.00014) 165836
(0.00017942 0.000193779 0.00014) 165835
(0.000178802 0.000196407 0.00014) 165935
(0.000178519 0.000199093 0.00014) 165935
(0.000178575 0.000201792 0.00014) 166035
(0.000178968 0.000204463 0.00014) 166035
(0.000179694 0.000207064 0.00014) 166135
(0.000180739 0.000209553 0.00014) 166136
(0.000182088 0.000211892 0.00014) 166236
(0.00018372 0.000214043 0.00014) 166236
(0.000185608 0.000215973 0.00014) 166337
(0.000187724 0.000217651 0.00014) 166337
(0.000190033 0.00021905 0.00014) 166338
(0.000192499 0.000220149 0.00014) 166438
(0.000195084 0.00022093 0.00014) 166439
(0.000197745 0.000221381 0.00014) 166439
(0.000200443 0.000221495 0.00014) 166440
(0.000203134 0.00022127 0.00014) 166440
(0.000205775 0.00022071 0.00014) 166441
(0.000208325 0.000219823 0.00014) 166341
(0.000210744 0.000218623 0.00014) 166342
(0.000214726 0.000219414 0.00014) 166342
(0.000217043 0.000217415 0.00014) 166343
(0.000219091 0.000215142 0.00014) 166343
(0.000220838 0.00021263 0.00014) 166244
(0.000222257 0.000209918 0.00014) 166144
(0.000223324 0.000207051 0.00014) 166144
(0.000224024 0.000204072 0.00014) 166044
(0.000224345 0.000201029 0.00014) 166044
(0.000224282 0.000197969 0.00014) 165944
(0.000223836 0.000194942 0.00014) 165844
(0.000223014 0.000191994 0.00014) 165844
(0.000221829 0.000189173 0.00014) 165744
(0.0002203 0.000186522 0.00014) 165744
(0.000218451 0.000184084 0.00014) 165643
(0.00021631 0.000181897 0.00014) 165643
(0.000213913 0.000179996 0.00014) 165542
(0.000211296 0.00017841 0.00014) 165542
(0.000208501 0.000177164 0.00014) 165541
(0.000205572 0.000176279 0.00014) 165541
(0.000202555 0.000175768 0.00014) 165540
(0.000199498 0.000175638 0.00014) 165539
(0.000196448 0.000175893 0.00014) 165539
(0.000193455 0.000176529 0.00014) 165538
(0.000190565 0.000177534 0.00014) 165538
(0.000187824 0.000178894 0.00014) 165537
(0.000185274 0.000180586 0.00014) 165637
(0.000182957 0.000182585 0.00014) 165636
(0.000180909 0.000184858 0.00014) 165636
(0.000179162 0.00018737 0.00014) 165735
(0.000177743 0.000190082 0.00014) 165835
(0.000176676 0.000192949 0.00014) 165835
(0.000175976 0.000195928 0.00014) 165935
(0.000175655 0.000198971 0.00014) 165935
(0.000175718 0.000202031 0.00014) 166035
(0.000176164 0.000205058 0.00014) 166135
(0.000176986 0.000208006 0.00014) 166135
(0.000178171 0.000210827 0.00014) 166235
(0.0001797 0.000213477 0.00014) 166235
(0.000181549 0.000215915 0.00014) 166336
(0.000183689 0.000218102 0.00014) 166336
(0.000186087 0.000220004 0.00014) 166437
(0.000188704 0.00022159 0.00014) 166437
(0.000191499 0.000222836 0.00014) 166438
(0.000194428 0.000223721 0.00014) 166438
(0.000197445 0.000224233 0.00014) 166439
(0.000200502 0.000224361 0.00014) 166440
(0.000203551 0.000224106 0.00014) 166440
(0.000206545 0.000223471 0.00014) 166441
(0.000209435 0.000222466 0.00014) 166441
(0.000212176 0.000221106 0.00014) 166442
(0.000216458 0.000221698 0.00014) 166443
(0.000219048 0.000219464 0.00014) 166343
(0.000221337 0.000216923 0.00014) 166344
(0.000223289 0.000214115 0.00014) 166244
(0.000224875 0.000211085 0.00014) 166244
(0.000226068 0.00020788 0.00014) 166145
(0.00022685 0.000204551 0.00014) 166045
(0.000227209 0.00020115 0.00014) 166045
(0.000227139 0.00019773 0.00014) 165945
(0.00022664 0.000194347 0.00014) 165845
(0.000225721 0.000191052 0.00014) 165845
(0.000224398 0.000187899 0.00014) 165744
(0.000222688 0.000184937 0.00014) 165644
(0.000220622 0.000182212 0.00014) 165644
(0.000218229 0.000179768 0.00014) 165543
(0.00021555 0.000177643 0.00014) 165543
(0.000212625 0.00017587 0.00014) 165542
(0.000209501 0.000174478 0.00014) 165441
(0.000206228 0.000173488 0.00014) 165441
(0.000202856 0.000172917 0.00014) 165440
(0.000199439 0.000172772 0.00014) 165439
(0.000196031 0.000173058 0.00014) 165439
(0.000192685 0.000173767 0.00014) 165438
(0.000189455 0.000174891 0.00014) 165437
(0.000186391 0.000176411 0.00014) 165537
(0.000183542 0.000178302 0.00014) 165536
(0.000180952 0.000180536 0.00014) 165636
(0.000178663 0.000183077 0.00014) 165635
(0.00017671 0.000185884 0.00014) 165735
(0.000175125 0.000188915 0.00014) 165735
(0.000173931 0.00019212 0.00014) 165834
(0.00017315 0.000195449 0.00014) 165934
(0.000172791 0.00019885 0.00014) 165934
(0.000172861 0.00020227 0.00014) 166034
(0.00017336 0.000205653 0.00014) 166134
(0.000174278 0.000208947 0.00014) 166134
(0.000175603 0.000212101 0.00014) 166235
(0.000177312 0.000215063 0.00014) 166335
(0.000179379 0.000217788 0.00014) 166335
(0.000181771 0.000220232 0.00014) 166436
(0.00018445 0.000222357 0.00014) 166436
(0.000187375 0.00022413 0.00014) 166437
(0.000190499 0.000225522 0.00014) 166538
(0.000193773 0.000226512 0.00014) 166538
(0.000197144 0.000227083 0.00014) 166539
(0.000200561 0.000227228 0.00014) 166540
(0.000203969 0.000226943 0.00014) 166540
(0.000207315 0.000226233 0.00014) 166541
(0.000210545 0.000225109 0.00014) 166542
(0.000213609 0.000223589 0.00014) 166442
(0.00021819 0.000223982 0.00014) 166443
(0.000221053 0.000221513 0.00014) 166444
(0.000223583 0.000218704 0.00014) 166344
(0.000225741 0.000215601 0.00014) 166345
(0.000227494 0.000212252 0.00014) 166245
(0.000228812 0.00020871 0.00014) 166145
(0.000229677 0.00020503 0.00014) 166145
(0.000230073 0.000201271 0.00014) 166046
(0.000229995 0.000197491 0.00014) 165945
(0.000229444 0.000193752 0.00014) 165845
(0.000228429 0.000190111 0.00014) 165845
(0.000226965 0.000186626 0.00014) 165745
(0.000225077 0.000183351 0.00014) 165645
(0.000222792 0.00018034 0.00014) 165644
(0.000220148 0.000177638 0.00014) 165544
(0.000217187 0.000175289 0.00014) 165543
(0.000213954 0.00017333 0.00014) 165442
(0.000210501 0.000171791 0.00014) 165442
(0.000206883 0.000170698 0.00014) 165441
(0.000203156 0.000170066 0.00014) 165440
(0.00019938 0.000169907 0.00014) 165339
(0.000195613 0.000170221 0.00014) 165439
(0.000191915 0.000171006 0.00014) 165438
(0.000188345 0.000172248 0.00014) 165437
(0.000184959 0.000173928 0.00014) 165436
(0.00018181 0.000176018 0.00014) 165536
(0.000178947 0.000178487 0.00014) 165535
(0.000176417 0.000181296 0.00014) 165635
(0.000174259 0.000184399 0.00014) 165634
(0.000172506 0.000187748 0.00014) 165734
(0.000171188 0.000191291 0.00014) 165834
(0.000170323 0.00019497 0.00014) 165834
(0.000169927 0.00019873 0.00014) 165933
(0.000170005 0.000202509 0.00014) 166034
(0.000170556 0.000206248 0.00014) 166134
(0.000171571 0.000209889 0.00014) 166134
(0.000173035 0.000213375 0.00014) 166234
(0.000174924 0.000216649 0.00014) 166334
(0.000177208 0.00021966 0.00014) 166335
(0.000179852 0.000222362 0.00014) 166435
(0.000182813 0.000224711 0.00014) 166436
(0.000186046 0.00022667 0.00014) 166537
(0.000189499 0.000228209 0.00014) 166537
(0.000193117 0.000229302 0.00014) 166538
(0.000196844 0.000229934 0.00014) 166539
(0.00020062 0.000230094 0.00014) 166640
(0.000204387 0.000229779 0.00014) 166540
(0.000208085 0.000228994 0.00014) 166541
(0.000211655 0.000227752 0.00014) 166542
(0.000215041 0.000226072 0.00014) 166543
(0.000219923 0.000226266 0.00014) 166543
(0.000223058 0.000223562 0.00014) 166444
(0.000225829 0.000220486 0.00014) 166445
(0.000228193 0.000217087 0.00014) 166345
(0.000230112 0.000213419 0.00014) 166246
(0.000231556 0.000209539 0.00014) 166146
(0.000232503 0.000205509 0.00014) 166146
(0.000232937 0.000201392 0.00014) 166046
(0.000232852 0.000197252 0.00014) 165946
(0.000232248 0.000193156 0.00014) 165846
(0.000231137 0.000189169 0.00014) 165746
(0.000229534 0.000185352 0.00014) 165745
(0.000227465 0.000181766 0.00014) 165645
(0.000224963 0.000178467 0.00014) 165544
(0.000222067 0.000175508 0.00014) 165544
(0.000218823 0.000172936 0.00014) 165443
(0.000215283 0.00017079 0.00014) 165443
(0.000211502 0.000169105 0.00014) 165342
(0.000207539 0.000167907 0.00014) 165341
(0.000203457 0.000167215 0.00014) 165340
(0.000199321 0.00016704 0.00014) 165339
(0.000195195 0.000167385 0.00014) 165339
(0.000191145 0.000168245 0.00014) 165338
(0.000187235 0.000169605 0.00014) 165337
(0.000183526 0.000171444 0.00014) 165436
(0.000180077 0.000173734 0.00014) 165436
(0.000176943 0.000176439 0.00014) 165535
(0.000174171 0.000179514 0.00014) 165534
(0.000171807 0.000182913 0.00014) 165634
(0.000169888 0.000186581 0.00014) 165733
(0.000168444 0.000190461 0.00014) 165833
(0.000167497 0.000194491 0.00014) 165833
(0.000167063 0.000198608 0.00014) 165933
(0.000167148 0.000202748 0.00014) 166033
(0.000167751 0.000206843 0.00014) 166133
(0.000168863 0.000210831 0.00014) 166233
(0.000170466 0.000214648 0.00014) 166234
(0.000172535 0.000218234 0.00014) 166334
(0.000175037 0.000221533 0.00014) 166435
(0.000177933 0.000224492 0.00014) 166435
(0.000181176 0.000227064 0.00014) 166536
(0.000184717 0.00022921 0.00014) 166536
(0.000188498 0.000230895 0.00014) 166637
(0.000192461 0.000232093 0.00014) 166638
(0.000196543 0.000232785 0.00014) 166639
(0.000200679 0.00023296 0.00014) 166640
(0.000204805 0.000232614 0.00014) 166640
(0.000208855 0.000231755 0.00014) 166641
(0.000212765 0.000230395 0.00014) 166642
(0.000216474 0.000228556 0.00014) 166543
(0.000221655 0.00022855 0.00014) 166544
(0.000225063 0.00022561 0.00014) 166545
(0.000228075 0.000222267 0.00014) 166445
(0.000230645 0.000218573 0.00014) 166346
(0.000232731 0.000214586 0.00014) 166246
(0.000234301 0.000210369 0.00014) 166246
(0.00023533 0.000205988 0.00014) 166147
(0.000235801 0.000201513 0.00014) 172047
(0.000235709 0.000197014 0.00014) 165947
(0.000235053 0.000192562 0.00014) 165847
(0.000233844 0.000188227 0.00014) 165746
(0.000232101 0.000184078 0.00014) 165646
(0.000229853 0.00018018 0.00014) 165645
(0.000227134 0.000176595 0.00014) 165545
(0.000223986 0.000173379 0.00014) 165444
(0.00022046 0.000170582 0.00014) 165444
(0.000216612 0.00016825 0.00014) 165343
(0.000212502 0.000166418 0.00014) 165342
(0.000208194 0.000165116 0.00014) 165341
(0.000203758 0.000164364 0.00014) 165240
(0.000199262 0.000164174 0.00014) 165239
(0.000194777 0.000164549 0.00014) 165238
(0.000190375 0.000165483 0.00014) 165338
(0.000186125 0.000166962 0.00014) 165337
(0.000182094 0.000168961 0.00014) 165336
(0.000178345 0.00017145 0.00014) 165435
(0.000174937 0.00017439 0.00014) 165434
(0.000171925 0.000177733 0.00014) 165534
(0.000169356 0.000181427 0.00014) 165633
(0.00016727 0.000185414 0.00014) 165733
(0.0001657 0.000189632 0.00014) 165733
(0.000164671 0.000194012 0.00014) 165832
(0.000164199 0.000198487 0.00014) 165932
(0.000164291 0.000202986 0.00014) 166032
(0.000164947 0.000207438 0.00014) 166132
(0.000166156 0.000211773 0.00014) 166233
(0.000167898 0.000215922 0.00014) 166333
(0.000170147 0.00021982 0.00014) 166334
(0.000172866 0.000223405 0.00014) 166434
(0.000176014 0.000226621 0.00014) 166535
(0.00017954 0.000229418 0.00014) 166535
(0.000183388 0.00023175 0.00014) 166636
(0.000187498 0.000233582 0.00014) 166637
(0.000191806 0.000234884 0.00014) 166638
(0.000196242 0.000235636 0.00014) 166739
(0.000200738 0.000235826 0.00014) 166740
(0.000205223 0.000235451 0.00014) 166741
(0.000209625 0.000234517 0.00014) 166641
(0.000213875 0.000233038 0.00014) 166642
(0.000217906 0.000231039 0.00014) 166643
(0.000223388 0.000230834 0.00014) 166644
(0.000227068 0.000227659 0.00014) 166545
(0.000230321 0.000224049 0.00014) 166446
(0.000233096 0.000220059 0.00014) 166446
(0.000235349 0.000215753 0.00014) 166347
(0.000237045 0.000211198 0.00014) 166247
(0.000238156 0.000206467 0.00014) 166147
(0.000238666 0.000201634 0.00014) 166047
(0.000238565 0.000196774 0.00014) 165947
(0.000237857 0.000191967 0.00014) 165847
(0.000236551 0.000187285 0.00014) 165747
(0.00023467 0.000182804 0.00014) 165646
(0.000232241 0.000178595 0.00014) 165546
(0.000229304 0.000174723 0.00014) 165445
(0.000225905 0.000171249 0.00014) 165445
(0.000222097 0.000168229 0.00014) 165344
(0.000217941 0.00016571 0.00014) 165343
(0.000213502 0.000163732 0.00014) 165242
(0.00020885 0.000162325 0.00014) 165241
(0.000204058 0.000161513 0.00014) 165240
(0.000199203 0.000161308 0.00014) 165239
(0.000194359 0.000161713 0.00014) 165238
(0.000189605 0.000162722 0.00014) 165237
(0.000185015 0.000164319 0.00014) 165237
(0.000180661 0.000166478 0.00014) 165336
(0.000176612 0.000169166 0.00014) 165335
(0.000172932 0.000172341 0.00014) 165434
(0.000169679 0.000175952 0.00014) 165533
(0.000166904 0.000179941 0.00014) 165533
(0.000164651 0.000184247 0.00014) 165632
(0.000162955 0.000188802 0.00014) 165732
(0.000161844 0.000193533 0.00014) 165832
(0.000161334 0.000198366 0.00014) 165932
(0.000161434 0.000203225 0.00014) 166032
(0.000162143 0.000208034 0.00014) 166132
(0.000163448 0.000212715 0.00014) 166232
(0.00016533 0.000217196 0.00014) 166333
(0.000167759 0.000221405 0.00014) 166433
(0.000170696 0.000225278 0.00014) 166534
(0.000174095 0.000228751 0.00014) 166534
(0.000177903 0.000231771 0.00014) 166635
(0.000182059 0.00023429 0.00014) 166636
(0.000186498 0.000236268 0.00014) 166737
(0.00019115 0.000237675 0.00014) 166738
(0.000195942 0.000238487 0.00014) 166739
(0.000200798 0.000238692 0.00014) 166740
(0.000205641 0.000238287 0.00014) 166741
(0.000210395 0.000237278 0.00014) 166742
(0.000214985 0.000235681 0.00014) 172742
(0.000219339 0.000233522 0.00014) 166643
(0.00022512 0.000233118 0.00014) 172645
(0.000229073 0.000229708 0.00014) 166545
(0.000232567 0.00022583 0.00014) 166546
(0.000235547 0.000221545 0.00014) 166447
(0.000237967 0.000216919 0.00014) 166347
(0.000239789 0.000212027 0.00014) 166247
(0.000240982 0.000206946 0.00014) 166148
(0.00024153 0.000201755 0.00014) 166048
(0.000241422 0.000196536 0.00014) 165948
(0.000240661 0.000191371 0.00014) 165848
(0.000239259 0.000186343 0.00014) 165747
(0.000237238 0.000181531 0.00014) 165647
(0.000234629 0.000177009 0.00014) 165546
(0.000231475 0.00017285 0.00014) 165446
(0.000227824 0.000169119 0.00014) 165345