/*--------------------------------*- C++ -*----------------------------------*\
| =========                 |                                                 |
| \\      /  F ield         | OpenFOAM: The Open Source CFD Toolbox           |
|  \\    /   O peration     | Version:  v2012                                 |
|   \\  /    A nd           | Website:  www.openfoam.com                      |
|    \\/     M anipulation  |                                                 |
\*---------------------------------------------------------------------------*/
FoamFile
{
    version     2.0;
    format      ascii;
    class       volScalarField;
    location    "0.0002";
    object      alpha.gas;
}
// * * * * * * * * * * * * * * * * * * * * * * * * * * * * * * * * * * * * * //

dimensions      [0 0 0 0 0 0 0];


internalField   nonuniform List<scalar> 
240000
(
7.5502e-205
9.88711e-205
8.75328e-205
7.30146e-205
6.41116e-205
5.03114e-205
4.4099e-205
3.74108e-205
3.03052e-205
2.33122e-205
2.02403e-205
1.29116e-205
8.20385e-206
4.95706e-206
3.01377e-206
1.79163e-206
9.79705e-207
4.55026e-207
1.99807e-207
6.56824e-208
2.58038e-208
9.89994e-209
3.27987e-209
9.0377e-210
1.98649e-210
3.27654e-211
3.09526e-212
7.28001e-213
1.35153e-213
1.85072e-214
1.64287e-215
6.01929e-217
5.00842e-221
1.25419e-222
9.9047e-225
4.50471e-228
5.36658e-294
1.44219e-289
3.85432e-288
4.39853e-287
2.9719e-291
8.61143e-295
1.0501e-293
1.66818e-292
1.37371e-295
2.49008e-300
0
0
0
0
0
0
0
0
0
0
0
0
0
0
0
0
0
0
0
0
0
0
0
0
0
0
0
0
0
0
0
0
0
0
0
0
0
2.98118e-297
6.59855e-286
1.55225e-274
3.89609e-263
1.0484e-251
3.04209e-240
4.67123e-237
2.29983e-235
3.30011e-234
4.35787e-233
3.5631e-232
1.67872e-231
5.37896e-231
1.18907e-230
2.01163e-230
2.40653e-230
1.09198e-230
1.07362e-204
3.51605e-204
4.95551e-204
5.2501e-204
4.34584e-204
3.91092e-204
3.39007e-204
2.85661e-204
2.33573e-204
2.44483e-204
2.1554e-204
1.5565e-204
1.06662e-204
6.90433e-205
4.2842e-205
2.68198e-205
1.59389e-205
8.15203e-206
4.21581e-206
1.52561e-206
6.58407e-207
2.63406e-207
9.64657e-208
3.19892e-208
9.68671e-209
2.88898e-209
7.41867e-210
1.60301e-210
2.91071e-211
4.25709e-212
4.70796e-213
3.69964e-214
1.79312e-215
4.37361e-217
3.37646e-219
1.50672e-222
8.78626e-287
2.27658e-282
5.94165e-281
7.00741e-280
4.84949e-284
1.37203e-287
1.67084e-286
2.6981e-285
2.24441e-288
4.1971e-293
3.84039e-298
0
0
0
0
0
0
0
0
0
0
0
0
0
0
0
0
0
0
0
0
0
0
0
0
0
0
0
0
0
0
0
0
0
0
0
0
1.73379e-295
3.61798e-284
7.97368e-273
1.86157e-261
4.62049e-250
1.22441e-238
4.00761e-235
2.33258e-233
3.43667e-232
3.24741e-231
1.68672e-230
6.60721e-230
1.38712e-229
2.50367e-229
3.00844e-229
1.83242e-229
1.70537e-230
1.21891e-204
5.6041e-204
8.92587e-204
8.8059e-204
8.6646e-204
7.83244e-204
6.72398e-204
5.57753e-204
5.84818e-204
5.63523e-204
3.83035e-204
3.21803e-204
2.26954e-204
1.51877e-204
9.55536e-205
6.07862e-205
3.6221e-205
1.58492e-205
7.23012e-206
4.54996e-206
1.6203e-206
6.67011e-207
2.47505e-207
8.20523e-208
2.55742e-208
7.78388e-209
2.07232e-209
4.62594e-210
8.40303e-211
1.19321e-211
1.24903e-212
8.90566e-214
3.71768e-215
7.18919e-217
3.20577e-219
5.07682e-224
7.03636e-280
1.75632e-275
4.47525e-274
5.45486e-273
3.87043e-277
1.06901e-280
1.29988e-279
2.13515e-278
1.7953e-281
3.46504e-286
3.27808e-291
2.00462e-296
0
0
0
0
0
0
0
0
0
0
0
0
0
0
0
0
0
0
0
0
0
0
0
0
0
0
0
0
0
0
0
0
0
0
0
0
3.01312e-292
6.83786e-281
1.64264e-269
4.19326e-258
1.14268e-246
3.34161e-235
3.09403e-233
6.35465e-232
6.06104e-231
3.04263e-230
1.12147e-229
2.51561e-229
4.4595e-229
4.96539e-229
2.59559e-229
9.59259e-231
1.18423e-204
7.42887e-204
1.0751e-203
1.24161e-203
1.2408e-203
1.1341e-203
9.21541e-204
1.115e-203
6.9537e-204
6.70891e-204
5.74999e-204
4.14985e-204
2.97374e-204
1.98294e-204
1.04463e-204
6.54437e-205
3.21092e-205
1.82809e-205
9.76583e-206
4.82782e-206
2.1855e-206
8.95893e-207
3.29156e-207
1.06742e-207
3.40147e-208
1.00405e-208
2.54414e-209
5.35915e-210
9.00749e-211
1.15227e-211
1.04928e-212
6.08354e-214
1.91348e-215
2.1072e-217
2.15307e-220
3.91726e-235
3.66214e-273
8.7977e-269
2.18806e-267
2.75667e-266
2.00749e-270
5.41178e-274
6.56995e-273
1.09849e-271
9.34309e-275
1.86202e-279
1.82226e-284
1.15465e-289
5.30897e-295
1.8841e-300
0
0
0
0
0
0
0
0
0
0
0
0
0
0
0
0
0
0
0
0
0
0
0
0
0
0
0
0
0
0
0
0
0
0
5.57025e-293
1.31321e-281
3.26923e-270
8.62732e-259
2.42429e-247
7.29106e-236
1.31499e-233
3.041e-232
4.17917e-231
2.1333e-230
1.11236e-229
2.30661e-229
4.18522e-229
4.58372e-229
2.16725e-229
3.77185e-231
1.32261e-204
8.23359e-204
1.56872e-203
1.60132e-203
1.52344e-203
1.33682e-203
1.45465e-203
1.45116e-203
1.00559e-203
8.58531e-204
6.5627e-204
4.77684e-204
3.24577e-204
1.82351e-204
9.24549e-205
5.91758e-205
3.59955e-205
2.05568e-205
1.08544e-205
5.30212e-206
2.3535e-206
9.40474e-207
3.33347e-207
1.04737e-207
3.40277e-208
9.45138e-209
2.21289e-209
4.18979e-210
6.1418e-211
6.54762e-212
4.69959e-213
1.9951e-214
3.63195e-216
1.22355e-218
2.678e-231
4.58937e-247
1.38866e-266
3.20766e-262
7.78464e-261
1.01389e-259
7.58667e-264
1.99568e-267
2.41856e-266
4.11941e-265
3.54714e-268
7.30299e-273
7.39723e-278
4.85928e-283
2.31993e-288
8.56113e-294
2.52388e-299
0
0
0
0
0
0
0
0
0
0
0
0
0
0
0
0
0
0
0
0
0
0
0
0
0
0
0
0
0
0
0
0
0
9.43266e-295
2.3448e-283
6.13157e-272
1.69318e-260
4.95867e-249
1.54754e-237
2.20524e-234
1.01837e-232
1.41351e-231
1.02165e-230
4.72162e-230
1.39541e-229
2.64555e-229
2.95209e-229
1.34088e-229
8.89879e-232
1.68002e-204
1.02578e-203
1.69462e-203
1.92301e-203
1.82747e-203
2.0947e-203
1.69022e-203
1.61322e-203
1.26001e-203
9.6122e-204
7.1463e-204
4.10533e-204
2.3859e-204
1.51168e-204
9.87724e-205
6.33667e-205
3.8154e-205
2.13576e-205
1.10736e-205
5.70015e-206
2.25748e-206
8.6365e-207
2.92505e-207
9.52364e-208
2.88368e-208
7.36142e-209
1.53555e-209
2.50003e-210
3.37997e-211
2.54606e-212
1.52554e-213
3.64351e-215
2.23658e-217
2.40485e-221
6.57055e-243
5.53827e-258
4.0783e-260
9.04851e-256
2.14218e-254
2.88508e-253
2.22103e-257
5.69898e-261
6.89361e-260
1.19707e-258
1.04452e-261
2.22266e-266
2.33138e-271
1.58857e-276
7.87952e-282
3.02537e-287
9.29415e-293
2.36389e-298
0
0
0
0
0
0
0
0
0
0
0
0
0
0
0
0
0
0
0
0
0
0
0
0
0
0
0
0
0
0
0
0
0
3.37401e-293
9.61991e-282
2.89227e-270
9.22011e-259
3.13607e-247
1.14631e-235
1.51735e-233
3.13977e-232
3.20692e-231
1.80879e-230
6.10887e-230
1.25368e-229
1.46227e-229
6.54231e-230
2.09844e-232
1.83216e-204
1.26507e-203
2.11205e-203
2.35859e-203
2.95829e-203
3.02837e-203
2.35797e-203
1.8482e-203
1.4206e-203
1.0708e-203
6.62588e-204
4.53098e-204
3.00857e-204
1.61988e-204
1.08168e-204
6.80582e-205
4.53278e-205
2.18718e-205
1.19339e-205
5.02739e-206
2.05835e-206
7.56281e-207
2.43474e-207
7.96929e-208
2.20559e-208
5.02857e-209
9.00225e-210
1.19943e-210
1.35389e-211
8.02456e-213
2.34717e-214
2.0787e-216
9.82803e-220
5.20291e-232
1.14167e-253
9.28478e-258
9.63135e-254
2.0502e-249
4.73329e-248
6.59469e-247
5.23041e-251
1.30853e-254
1.57956e-253
2.79881e-252
2.47726e-255
5.4509e-260
5.92376e-265
4.1889e-270
2.15983e-275
8.63317e-281
2.7654e-286
7.34135e-292
1.64064e-297
0
0
0
0
0
0
0
0
0
0
0
0
0
0
0
0
0
0
0
0
0
0
0
0
0
0
0
0
0
0
0
0
7.88105e-296
2.46203e-284
8.05671e-273
2.77751e-261
1.01523e-249
3.96189e-238
1.01933e-234
5.30218e-233
6.74719e-232
4.98072e-231
1.99536e-230
4.583e-230
5.67391e-230
2.53562e-230
8.82262e-233
2.42796e-204
1.62713e-203
2.69278e-203
2.96344e-203
4.04336e-203
3.6206e-203
2.8445e-203
2.19725e-203
1.66497e-203
1.18625e-203
7.33632e-204
4.20113e-204
2.83362e-204
1.86909e-204
1.22655e-204
7.57474e-205
4.79627e-205
2.29331e-205
1.17567e-205
4.82332e-206
1.90004e-206
6.58069e-207
2.13095e-207
6.36448e-208
1.57818e-208
3.09183e-209
4.54184e-210
5.73065e-211
3.86702e-212
1.33608e-213
1.54691e-215
1.59213e-218
2.7959e-230
2.32948e-243
1.81144e-255
2.00064e-251
1.8755e-247
3.82552e-243
8.60956e-242
1.24166e-240
1.01618e-244
2.47723e-248
2.98339e-247
5.3989e-246
4.85272e-249
1.10463e-253
1.24436e-258
9.13606e-264
4.89913e-269
2.03974e-274
6.8166e-280
1.88992e-285
4.41568e-291
8.80899e-297
0
0
0
0
0
0
0
0
0
0
0
0
0
0
0
0
0
0
0
0
0
0
0
0
0
0
0
0
0
0
0
0
1.21738e-294
4.53972e-283
1.77435e-271
7.32678e-260
3.22467e-248
1.52791e-236
3.57524e-234
9.52944e-233
9.6053e-232
4.86132e-231
1.29047e-230
1.73955e-230
8.78896e-231
2.99759e-233
3.27468e-204
2.14466e-203
3.53458e-203
3.85291e-203
5.76485e-203
4.5826e-203
3.57988e-203
2.73945e-203
2.05306e-203
1.22978e-203
7.27834e-204
6.08424e-204
3.38913e-204
2.26353e-204
1.6588e-204
9.79464e-205
5.33563e-205
2.49628e-205
1.15145e-205
4.80449e-206
1.78303e-206
5.72063e-207
1.84126e-207
4.93725e-208
1.05681e-208
1.71175e-209
2.38498e-210
1.82037e-211
7.3221e-213
1.0655e-214
1.87562e-217
5.74523e-229
1.51538e-241
1.1272e-253
3.46875e-249
3.62152e-245
3.06546e-241
5.98307e-237
1.31205e-235
1.96032e-234
1.65838e-238
3.93635e-242
4.72793e-241
8.74648e-240
7.99308e-243
1.88309e-247
2.19977e-252
1.67757e-257
9.35988e-263
4.06104e-268
1.41663e-273
4.10422e-279
1.00311e-284
2.09542e-290
3.77787e-296
0
0
0
0
0
0
0
0
0
0
0
0
0
0
0
0
0
0
0
0
0
0
0
0
0
0
0
0
0
0
0
0
2.38921e-294
1.08863e-282
5.19669e-271
2.62656e-259
1.4224e-247
8.36358e-236
7.41516e-234
1.22483e-232
8.42046e-232
2.71214e-231
4.06636e-231
1.92363e-231
7.8205e-234
4.47421e-204
2.89055e-203
4.77835e-203
5.18533e-203
7.64569e-203
6.07907e-203
4.74326e-203
3.58015e-203
2.65252e-203
1.58464e-203
1.13528e-203
6.40992e-204
4.25448e-204
2.86633e-204
1.81663e-204
1.41423e-204
5.75374e-205
3.1467e-205
1.23836e-205
4.91368e-206
1.68221e-206
5.42854e-207
1.5709e-207
3.67645e-208
6.56711e-209
1.00318e-209
8.67178e-211
4.06319e-212
7.33594e-214
2.00576e-216
8.34106e-228
3.75209e-240
5.93162e-252
8.48675e-248
5.65467e-243
5.58294e-239
4.26183e-235
7.94667e-231
1.6972e-229
2.62988e-228
2.30429e-232
5.32039e-236
6.37e-235
1.20585e-233
1.12184e-236
2.73638e-241
3.31593e-246
2.62749e-251
1.52584e-256
6.90166e-262
2.51411e-267
7.61499e-273
1.94796e-278
4.26313e-284
8.05966e-290
1.32626e-295
0
0
0
0
0
0
0
0
0
0
0
0
0
0
0
0
0
0
0
0
0
0
0
0
0
0
0
0
0
0
0
2.01636e-298
1.10969e-286
6.29021e-275
3.71964e-263
2.32525e-251
1.5586e-239
2.02606e-235
8.89151e-234
9.38112e-233
3.97245e-232
6.89451e-232
3.94637e-232
1.45127e-234
6.1755e-204
3.9964e-203
6.63154e-203
7.20144e-203
1.04499e-202
8.41728e-203
6.50219e-203
4.0907e-203
3.55292e-203
2.11479e-203
1.22303e-203
8.50964e-204
5.66825e-204
5.14334e-204
3.25785e-204
1.84012e-204
7.88181e-205
3.96725e-205
1.37283e-205
5.06217e-206
1.62889e-206
5.12126e-207
1.30823e-207
2.86459e-208
4.33095e-209
4.26027e-210
2.33837e-211
5.23924e-213
2.15361e-215
1.25138e-226
6.52818e-239
1.6828e-250
1.03067e-246
1.23955e-241
7.93665e-237
7.40978e-233
5.09267e-229
9.05519e-225
1.8824e-223
3.02938e-222
2.7552e-226
6.18073e-230
7.37148e-229
1.42937e-227
1.35557e-230
3.42446e-235
4.30568e-240
3.54568e-245
2.14359e-250
1.01105e-255
3.84726e-261
1.21876e-266
3.26446e-272
7.48854e-278
1.48531e-283
2.56618e-289
3.88514e-295
0
0
0
0
0
0
0
0
0
0
0
0
0
0
0
0
0
0
0
0
0
0
0
0
0
0
0
0
0
0
0
7.08574e-298
5.19198e-286
3.88739e-274
3.02842e-262
2.5007e-250
2.23255e-238
2.2782e-235
5.61478e-234
3.58048e-233
9.38547e-233
4.38129e-233
1.65726e-235
8.57855e-204
5.65108e-203
9.60548e-203
1.04837e-202
1.09441e-202
9.04879e-203
9.19087e-203
5.41459e-203
4.01838e-203
2.35733e-203
1.99332e-203
1.32511e-203
1.10235e-203
7.14452e-204
4.29138e-204
2.35693e-204
1.16081e-204
4.0973e-205
1.52786e-205
5.25579e-206
1.69301e-206
4.71813e-207
1.26978e-207
1.98724e-208
2.16323e-209
1.40462e-210
3.94911e-212
2.42687e-214
7.10859e-219
2.11591e-237
3.47589e-249
7.99371e-246
1.36104e-240
1.57432e-235
9.68548e-231
8.54466e-227
5.27592e-223
8.92672e-219
1.80497e-217
3.02211e-216
2.85994e-220
6.22447e-224
7.38812e-223
1.46896e-221
1.42216e-224
3.7217e-229
4.85558e-234
4.1557e-239
2.61564e-244
1.28657e-249
5.11479e-255
1.69505e-260
4.75562e-266
1.14394e-271
2.38146e-277
4.32191e-283
6.87745e-289
9.64239e-295
1.19589e-300
0
0
0
0
0
0
0
0
0
0
0
0
0
0
0
0
0
0
0
0
0
0
0
0
0
0
0
0
0
0
1.66343e-298
1.74427e-286
1.8422e-274
2.01324e-262
2.33792e-250
2.96832e-238
1.10478e-235
1.61476e-234
5.63296e-234
3.70996e-234
9.18262e-237
1.19911e-203
1.11649e-202
1.38623e-202
1.52575e-202
1.59902e-202
1.32352e-202
1.03267e-202
6.58311e-203
5.70104e-203
3.99531e-203
3.3077e-203
2.18664e-203
1.53578e-203
9.79359e-204
5.74675e-204
3.05046e-204
1.19694e-204
5.48233e-205
1.71801e-205
5.56175e-206
1.70844e-206
5.20173e-207
9.33116e-208
1.13016e-208
8.73279e-210
3.12327e-211
2.86131e-213
4.75668e-217
6.51464e-229
8.03016e-248
4.42826e-245
9.62109e-240
1.57593e-234
1.75498e-229
1.03711e-224
8.63122e-221
4.77486e-217
7.66869e-213
1.50697e-211
2.63056e-210
2.59699e-214
5.47464e-218
6.45928e-217
1.31827e-215
1.30484e-218
3.53768e-223
4.78871e-228
4.25893e-233
2.79026e-238
1.43107e-243
5.94358e-249
2.06074e-254
6.05699e-260
1.52819e-265
3.34034e-271
6.37027e-277
1.06593e-282
1.57223e-288
2.05217e-294
2.37823e-300
0
0
0
0
0
0
0
0
0
0
0
0
0
0
0
0
0
0
0
0
0
0
0
0
0
0
0
0
0
0
2.68821e-300
4.55137e-288
7.51976e-276
1.26657e-263
2.26466e-251
4.48471e-239
1.92057e-236
1.24062e-235
1.10627e-235
8.44149e-239
1.76309e-203
1.64278e-202
2.95403e-202
2.98144e-202
2.03365e-202
1.92097e-202
1.5217e-202
9.29884e-203
6.6781e-203
6.79556e-203
4.51743e-203
3.23297e-203
2.17168e-203
1.35579e-203
7.2142e-204
3.94229e-204
1.70249e-204
5.47303e-205
2.35782e-205
7.71879e-206
2.09011e-206
4.32175e-207
6.18789e-208
5.48495e-209
2.52682e-210
2.99386e-212
2.07604e-215
5.49502e-227
2.09141e-239
1.86787e-244
4.88984e-239
1.02237e-233
1.61454e-228
1.73342e-223
9.83252e-219
7.69497e-215
3.80186e-211
5.77937e-207
1.10266e-205
2.01148e-204
2.07716e-208
4.23363e-212
4.95791e-211
1.03974e-209
1.05387e-212
2.96012e-217
4.15591e-222
3.83932e-227
2.61702e-232
1.39893e-237
6.06777e-243
2.20064e-248
6.77611e-254
1.79338e-259
4.1167e-265
8.25233e-271
1.45249e-276
2.25474e-282
3.09851e-288
3.78149e-294
4.10972e-300
0
0
0
0
0
0
0
0
0
0
0
0
0
0
0
0
0
0
0
0
0
0
0
0
0
0
0
0
0
0
0
0
1.91163e-288
6.09549e-276
2.0429e-263
7.73701e-251
3.61788e-238
8.67438e-238
2.40234e-244
2.47962e-203
2.72151e-202
4.94935e-202
3.93602e-202
2.97476e-202
2.43482e-202
1.8624e-202
1.36703e-202
9.70779e-203
9.81599e-203
6.71061e-203
4.70763e-203
3.10536e-203
1.8891e-203
9.7923e-204
4.61378e-204
1.67964e-204
8.01856e-205
2.66483e-205
8.17909e-206
1.93695e-206
3.2915e-207
3.52136e-208
2.03212e-209
3.57771e-211
6.87986e-214
2.90916e-225
2.53931e-237
6.25234e-244
1.90254e-238
4.79472e-233
9.67763e-228
1.47782e-222
1.53224e-217
8.3286e-213
6.09683e-209
2.681e-205
3.84504e-201
7.11438e-200
1.3596e-198
1.47229e-202
2.89628e-206
3.36086e-205
7.25023e-204
7.53827e-207
2.19334e-211
3.19228e-216
3.06133e-221
2.16936e-226
1.20769e-231
5.46685e-237
2.07292e-242
6.68472e-248
1.85564e-253
4.47348e-259
9.42753e-265
1.74584e-270
2.85307e-276
4.12919e-282
5.30867e-288
6.07874e-294
6.21354e-300
0
0
0
0
0
0
0
0
0
0
0
0
0
0
0
0
0
0
0
0
0
0
0
0
0
0
0
0
0
0
0
0
0
0
2.69726e-293
3.10351e-280
4.80197e-267
1.40592e-253
4.08807e-203
4.01961e-202
7.37431e-202
5.05937e-202
4.47726e-202
3.65023e-202
2.78096e-202
2.02655e-202
1.72866e-202
1.43515e-202
1.00304e-202
6.9274e-203
4.46952e-203
2.6424e-203
1.26136e-203
5.39027e-204
2.60639e-204
9.03984e-205
3.04995e-205
8.31487e-206
1.67176e-206
2.2079e-207
1.5909e-208
4.10293e-210
1.85503e-212
1.13432e-223
1.76236e-235
1.70925e-243
5.89965e-238
1.72899e-232
4.21208e-227
8.24059e-222
1.22121e-216
1.2248e-211
6.35909e-207
4.31861e-203
1.6846e-199
2.27141e-195
4.07041e-194
8.16738e-193
9.29438e-197
1.76224e-200
2.02278e-199
4.4939e-198
4.80217e-201
1.4472e-205
2.18226e-210
2.17052e-215
1.59733e-220
9.25027e-226
4.36531e-231
1.72902e-236
5.83555e-242
1.69834e-247
4.29888e-253
9.52389e-259
1.8558e-264
3.19328e-270
4.86842e-276
6.59527e-282
7.9589e-288
8.57428e-294
8.26226e-300
0
0
0
0
0
0
0
0
0
0
0
0
0
0
0
0
0
0
0
0
0
0
0
0
0
0
0
0
0
0
0
0
0
0
0
0
0
5.76092e-203
5.95649e-202
1.10082e-201
7.61254e-202
6.76874e-202
5.48698e-202
4.16713e-202
3.02134e-202
3.08125e-202
2.11972e-202
1.51566e-202
1.02823e-202
6.46013e-203
3.45218e-203
1.38365e-203
8.11534e-204
2.64897e-204
1.07846e-204
3.38543e-205
8.00619e-206
1.30392e-206
1.23185e-207
4.39952e-209
4.16332e-211
1.51146e-216
8.52244e-234
3.90663e-243
1.499e-237
4.98585e-232
1.4145e-226
3.34865e-221
6.37882e-216
9.20849e-211
8.94377e-206
4.41153e-201
2.7466e-197
9.47779e-194
1.19713e-189
2.07477e-188
4.37815e-187
5.24345e-191
9.57562e-195
1.08558e-193
2.4869e-192
2.73746e-195
8.54485e-200
1.33432e-204
1.37526e-209
1.04978e-214
6.31502e-220
3.10223e-225
1.2818e-230
4.52278e-236
1.37887e-241
3.66268e-247
8.52771e-253
1.74826e-258
3.16754e-264
5.08771e-270
7.2638e-276
9.23974e-282
1.04932e-287
1.06586e-293
9.69937e-300
0
0
0
0
0
0
0
0
0
0
0
0
0
0
0
0
0
0
0
0
0
0
0
0
0
0
0
0
0
0
0
0
0
0
0
0
8.09207e-203
8.8309e-202
1.64249e-201
1.57781e-201
1.01769e-201
8.25874e-202
6.25708e-202
4.68164e-202
4.62415e-202
3.25318e-202
2.30634e-202
1.53394e-202
9.3616e-203
4.62499e-203
1.94792e-203
9.76033e-204
3.71928e-204
1.29657e-204
3.61132e-205
7.16231e-206
8.81057e-207
4.90683e-208
7.78718e-210
3.76043e-213
1.9162e-224
8.17243e-243
3.18322e-237
1.18096e-231
3.80797e-226
1.05279e-220
2.43641e-215
4.53585e-210
6.39838e-205
6.01798e-200
2.79813e-195
1.57167e-191
4.78823e-188
5.64626e-184
9.45007e-183
2.0986e-181
2.64702e-185
4.6572e-189
5.20914e-188
1.23231e-186
1.40106e-189
4.5314e-194
7.32708e-199
7.82081e-204
6.18564e-209
3.85951e-214
1.97025e-219
8.47752e-225
3.12232e-230
9.95895e-236
2.77343e-241
6.78177e-247
1.46221e-252
2.78903e-258
4.71935e-264
7.10134e-270
9.52258e-276
1.14013e-281
1.22093e-287
1.1712e-293
1.00781e-299
0
0
0
0
0
0
0
0
0
0
0
0
0
0
0
0
0
0
0
0
0
0
0
0
0
0
0
0
0
0
0
0
0
0
0
1.13021e-202
1.30442e-201
2.43913e-201
2.3874e-201
1.93717e-201
1.33637e-201
1.20159e-201
8.60043e-202
6.89022e-202
4.46042e-202
3.1506e-202
2.08779e-202
1.03601e-202
5.28466e-203
3.11028e-203
1.30716e-203
4.63744e-204
1.51605e-204
3.63966e-205
5.76101e-206
4.84774e-207
1.27894e-208
4.07703e-211
7.83691e-222
1.17225e-233
5.73133e-237
2.34154e-231
8.43273e-226
2.65752e-220
7.21854e-215
1.64219e-209
2.99022e-204
4.12738e-199
3.75363e-194
1.62924e-189
8.09002e-186
2.17306e-182
2.38492e-178
3.84916e-177
8.99339e-176
1.19491e-179
2.02782e-183
2.2366e-182
5.47327e-181
6.44794e-184
2.16258e-188
3.62276e-193
4.00425e-198
3.27964e-203
2.11997e-208
1.12274e-213
5.02085e-219
1.92642e-224
6.41699e-230
1.87083e-235
4.79939e-241
1.08749e-246
2.18273e-252
3.88997e-258
6.16837e-264
8.71946e-270
1.10066e-275
1.24265e-281
1.25661e-287
1.13968e-293
9.28134e-300
0
0
0
0
0
0
0
0
0
0
0
0
0
0
0
0
0
0
0
0
0
0
0
0
0
0
0
0
0
0
0
0
0
0
1.56402e-202
1.91339e-201
3.59986e-201
3.479e-201
3.10709e-201
2.44954e-201
1.79043e-201
1.4594e-201
9.31153e-202
6.87583e-202
4.83354e-202
3.13244e-202
1.75562e-202
9.95282e-203
4.09371e-203
1.63426e-203
5.87921e-204
1.70439e-204
3.40155e-205
3.98606e-206
1.95264e-207
1.73188e-209
6.27498e-219
3.63343e-229
8.84543e-237
3.93934e-231
1.56408e-225
5.52033e-220
1.71864e-214
4.63032e-209
1.03905e-203
1.83993e-198
2.48176e-193
2.17613e-188
8.72574e-184
3.73889e-180
8.8427e-177
9.00852e-173
1.40016e-171
3.43899e-170
4.81377e-174
7.89408e-178
8.58464e-177
2.17743e-175
2.66773e-178
9.28995e-183
1.61405e-187
1.84848e-192
1.56811e-197
1.04959e-202
5.7598e-208
2.67219e-213
1.06579e-218
3.69956e-224
1.12695e-229
3.02831e-235
7.20283e-241
1.52004e-246
2.85161e-252
4.76363e-258
7.09709e-264
9.44408e-270
1.12405e-275
1.1982e-281
1.14532e-287
9.82797e-294
7.57857e-300
0
0
0
0
0
0
0
0
0
0
0
0
0
0
0
0
0
0
0
0
0
0
0
0
0
0
0
0
0
0
0
0
0
2.12832e-202
2.78018e-201
5.32539e-201
5.24708e-201
4.60485e-201
3.63364e-201
2.73369e-201
1.92126e-201
1.43386e-201
1.06472e-201
7.38272e-202
3.64372e-202
2.19322e-202
1.37992e-202
5.7145e-203
2.09087e-203
7.24154e-204
1.81151e-204
2.86177e-205
2.22109e-206
4.64368e-208
1.43928e-211
5.04894e-222
2.46863e-233
5.67725e-231
2.46076e-225
9.59797e-220
3.3644e-214
1.04967e-208
2.83433e-203
6.26485e-198
1.06072e-192
1.39159e-187
1.17204e-182
4.30073e-178
1.54792e-174
3.21635e-171
3.03467e-167
4.53699e-166
1.17058e-164
1.72742e-168
2.74318e-172
2.94112e-171
7.74916e-170
9.91306e-173
3.58927e-177
6.47568e-182
7.6922e-187
6.76458e-192
4.69004e-197
2.66587e-202
1.28156e-207
5.30327e-213
1.91389e-218
6.07725e-224
1.70704e-229
4.25489e-235
9.4293e-241
1.86046e-246
3.27215e-252
5.13599e-258
7.20281e-264
9.03599e-270
1.01519e-275
1.02258e-281
9.24448e-288
7.50804e-294
5.48293e-300
0
0
0
0
0
0
0
0
0
0
0
0
0
0
0
0
0
0
0
0
0
0
0
0
0
0
0
0
0
0
0
0
2.83448e-202
3.99601e-201
7.81975e-201
8.64187e-201
7.96015e-201
5.51097e-201
4.60102e-201
3.24029e-201
1.76196e-201
1.63783e-201
8.74606e-202
5.41438e-202
4.07473e-202
1.902e-202
7.49032e-203
2.77487e-203
8.56626e-204
1.78371e-204
2.07213e-205
8.84504e-207
3.57202e-209
1.82412e-219
1.51285e-230
7.05356e-231
3.31251e-225
1.41312e-219
5.49961e-214
1.95119e-208
6.21319e-203
1.69738e-197
3.66175e-192
5.7365e-187
7.25836e-182
5.84784e-177
1.95033e-172
5.73354e-169
1.04273e-165
9.09464e-162
1.30691e-160
3.54284e-159
5.52172e-163
8.50971e-167
8.99214e-166
2.46697e-164
3.30892e-167
1.24695e-171
2.33779e-176
2.88287e-181
2.63063e-186
1.89085e-191
1.11377e-196
5.54629e-202
2.37842e-207
8.90611e-213
2.94076e-218
8.61341e-224
2.24505e-229
5.21562e-235
1.08092e-240
1.9997e-246
3.30458e-252
4.88187e-258
6.45291e-264
7.63891e-270
8.10645e-276
7.71905e-282
6.60121e-288
5.07432e-294
3.5088e-300
0
0
0
0
0
0
0
0
0
0
0
0
0
0
0
0
0
0
0
0
0
0
0
0
0
0
0
0
0
0
0
3.65656e-202
5.52294e-201
1.13918e-200
1.29292e-200
1.17426e-200
9.39772e-201
5.98393e-201
3.63983e-201
2.69949e-201
1.95967e-201
1.31421e-201
7.99221e-202
5.52459e-202
2.59766e-202
9.5931e-203
3.56944e-203
9.59021e-204
1.58341e-204
1.21057e-205
1.96407e-207
1.19561e-214
2.00051e-224
7.58421e-231
3.83602e-225
1.77537e-219
7.5848e-214
3.01301e-208
1.10917e-202
3.67305e-197
1.01919e-191
2.1095e-186
2.91036e-181
3.50742e-176
2.69237e-171
8.13702e-167
1.90263e-163
3.01101e-160
2.42453e-156
3.3489e-155
9.55751e-154
1.57854e-157
2.3661e-161
2.46181e-160
7.0506e-159
9.9569e-162
3.90491e-166
7.60154e-171
9.73099e-176
9.21364e-181
6.86945e-186
4.19617e-191
2.1655e-196
9.62062e-202
3.73331e-207
1.27922e-212
3.89718e-218
1.05955e-223
2.57478e-229
5.59512e-235
1.08734e-240
1.88996e-246
2.939e-252
4.09097e-258
5.10055e-264
5.70037e-270
5.71526e-276
5.14481e-282
4.16145e-288
3.02679e-294
1.98093e-300
0
0
0
0
0
0
0
0
0
0
0
0
0
0
0
0
0
0
0
0
0
0
0
0
0
0
0
0
0
0
4.86867e-202
7.79236e-201
1.64383e-200
1.88506e-200
1.72314e-200
1.38252e-200
1.02359e-200
5.32846e-201
4.09282e-201
2.9514e-201
1.95677e-201
1.43917e-201
7.83458e-202
3.48927e-202
1.3036e-202
4.40659e-203
9.98442e-204
1.22351e-204
5.09885e-206
1.09517e-208
7.98744e-219
1.127e-229
3.8317e-225
1.91157e-219
8.88188e-214
3.89778e-208
1.62747e-202
6.36704e-197
2.21257e-191
6.19752e-186
1.2084e-180
1.38636e-175
1.56526e-170
1.14045e-165
3.12921e-161
5.69084e-158
7.77655e-155
5.77873e-151
7.682e-150
2.31805e-148
4.07766e-152
5.95843e-156
6.09221e-155
1.82615e-153
2.7254e-156
1.11032e-160
2.23736e-165
2.96758e-170
2.90862e-175
2.24725e-180
1.42342e-185
7.61582e-191
3.50645e-196
1.40963e-201
5.00577e-207
1.58284e-212
4.47735e-218
1.13525e-223
2.58106e-229
5.25987e-235
9.60312e-241
1.57035e-246
2.30005e-252
3.01837e-258
3.55074e-264
3.7467e-270
3.54867e-276
3.01908e-282
2.30875e-288
1.588e-294
0
0
0
0
0
0
0
0
0
0
0
0
0
0
0
0
0
0
0
0
0
0
0
0
0
0
0
0
0
0
6.72319e-202
9.2435e-201
2.35386e-200
2.73158e-200
2.51056e-200
2.01878e-200
1.27355e-200
8.02098e-201
6.1367e-201
4.39567e-201
2.88069e-201
1.68862e-201
1.09175e-201
4.57518e-202
1.72734e-202
5.16225e-203
9.48204e-204
7.83473e-205
1.22487e-206
3.99483e-214
9.4909e-224
3.30154e-225
1.76646e-219
8.85727e-214
4.24384e-208
1.97468e-202
8.8912e-197
3.72503e-191
1.34571e-185
3.75487e-180
6.84474e-175
6.23423e-170
6.4632e-165
4.44997e-160
1.11712e-155
1.55588e-152
1.82019e-149
1.24793e-145
1.60031e-144
5.13523e-143
9.655e-147
1.37876e-150
1.38353e-149
4.34975e-148
6.88027e-151
2.90267e-155
6.02494e-160
8.24233e-165
8.31206e-170
6.62948e-175
4.34437e-180
2.40789e-185
1.14901e-190
4.786e-196
1.76057e-201
5.77001e-207
1.69445e-212
4.47143e-218
1.06101e-223
2.26252e-229
4.33142e-235
7.43811e-241
1.14515e-246
1.58044e-252
1.9556e-258
2.17041e-264
2.1617e-270
1.93333e-276
1.55361e-282
1.12245e-288
7.295e-295
0
0
0
0
0
0
0
0
0
0
0
0
0
0
0
0
0
0
0
0
0
0
0
0
0
0
0
0
0
8.2127e-202
1.03173e-200
3.34114e-200
3.92718e-200
3.63549e-200
2.9235e-200
2.10612e-200
1.1926e-200
9.08382e-201
6.46209e-201
4.19129e-201
2.40262e-201
1.22619e-201
5.82499e-202
2.20218e-202
5.68098e-203
8.02425e-204
3.81693e-205
8.05826e-208
9.14477e-218
2.44927e-225
1.39901e-219
7.52062e-214
3.89324e-208
1.98636e-202
1.00479e-196
4.89702e-191
2.1608e-185
7.94396e-180
2.18626e-174
3.76989e-169
2.68965e-164
2.50442e-159
1.61518e-154
3.75926e-150
3.98576e-147
3.87114e-144
2.40383e-140
2.94088e-139
9.95694e-138
1.99724e-141
2.79884e-145
2.76575e-144
9.2088e-143
1.56827e-145
6.95673e-150
1.50603e-154
2.11068e-159
2.16971e-164
1.7724e-169
1.19475e-174
6.83667e-180
3.37657e-185
1.45689e-190
5.5512e-196
1.88446e-201
5.7366e-207
1.57206e-212
3.88359e-218
8.64504e-224
1.73187e-229
3.11794e-235
5.03902e-241
7.30583e-247
9.50032e-253
1.10814e-258
1.1598e-264
1.08971e-270
9.19605e-277
6.97434e-283
4.75604e-289
2.91768e-295
0
0
0
0
0
0
0
0
0
0
0
0
0
0
0
0
0
0
0
0
0
0
0
0
0
0
0
0
1.10146e-201
1.75939e-200
4.70616e-200
5.60312e-200
5.21688e-200
4.19439e-200
3.09777e-200
1.75068e-200
1.32714e-200
9.37368e-201
6.00518e-201
3.35691e-201
1.6302e-201
7.79211e-202
2.68098e-202
5.81087e-203
5.8742e-204
1.20993e-205
1.08669e-212
3.62763e-222
9.45566e-220
5.41926e-214
3.00236e-208
1.65443e-202
9.19595e-197
5.05485e-191
2.60606e-185
1.17722e-179
4.32765e-174
1.17843e-168
1.98973e-163
1.1521e-158
9.43724e-154
5.55572e-149
1.15721e-144
9.1251e-142
7.13955e-139
3.98979e-135
4.64081e-134
1.6517e-132
3.54043e-136
4.89377e-140
4.77343e-139
1.6904e-137
3.12517e-140
1.46616e-144
3.34414e-149
4.9122e-154
5.23068e-159
4.32745e-164
2.97248e-169
1.7439e-174
8.88059e-180
3.96268e-185
1.56317e-190
5.49464e-196
1.73243e-201
4.92233e-207
1.26322e-212
2.92849e-218
6.12527e-224
1.15386e-229
1.95439e-235
2.97283e-241
4.05814e-247
4.97014e-253
5.46167e-259
5.3867e-265
4.77029e-271
3.79491e-277
2.71337e-283
1.7445e-289
1.00894e-295
0
0
0
0
0
0
0
0
0
0
0
0
0
0
0
0
0
0
0
0
0
0
0
0
0
0
0
1.45965e-201
2.82963e-200
6.57757e-200
7.92414e-200
7.41398e-200
5.94697e-200
3.79991e-200
2.53468e-200
1.91144e-200
1.33953e-200
8.45605e-201
4.58898e-201
2.10739e-201
1.01387e-201
3.10999e-202
5.47458e-203
3.56927e-204
1.67871e-206
2.82569e-216
5.41355e-220
3.29235e-214
1.93497e-208
1.13487e-202
6.78543e-197
4.09151e-191
2.37814e-185
1.25523e-179
5.67868e-174
2.08088e-168
5.73509e-163
1.00841e-157
5.14931e-153
3.47483e-148
1.68083e-143
3.03007e-139
1.80913e-136
1.12185e-133
5.63478e-130
6.2143e-129
2.3127e-127
5.30656e-131
7.27795e-135
7.03492e-134
2.66054e-132
5.3813e-135
2.67896e-139
6.45911e-144
9.99442e-149
1.11731e-153
9.64573e-159
6.71693e-164
4.00048e-169
2.08686e-174
9.59681e-180
3.91292e-185
1.42319e-190
4.64486e-196
1.3669e-201
3.638e-207
8.76479e-213
1.9098e-218
3.75652e-224
6.6563e-230
1.06063e-235
1.51792e-241
1.9498e-247
2.2474e-253
2.32463e-259
2.15838e-265
1.7996e-271
1.34799e-277
9.07524e-284
5.49368e-290
2.99124e-296
0
0
0
0
0
0
0
0
0
0
0
0
0
0
0
0
0
0
0
0
0
0
0
0
0
0
1.90886e-201
3.74024e-200
9.11656e-200
9.31744e-200
8.6043e-200
7.04504e-200
5.55453e-200
3.61784e-200
2.71247e-200
1.88323e-200
1.16895e-200
6.57107e-201
2.6445e-201
1.2729e-201
3.4282e-202
4.70211e-203
1.68238e-204
2.95637e-209
6.23832e-219
1.66911e-214
1.03227e-208
6.35125e-203
3.99634e-197
2.57098e-191
1.63141e-185
9.67654e-180
5.10069e-174
2.29486e-168
8.51801e-163
2.49665e-157
5.02218e-152
2.17619e-147
1.13499e-142
4.30161e-138
6.51217e-134
3.0255e-131
1.47345e-128
6.68132e-125
6.964e-124
2.6879e-122
6.61417e-126
9.06258e-130
8.73806e-129
3.54496e-127
7.91236e-130
4.19517e-134
1.07277e-138
1.75383e-143
2.06447e-148
1.87097e-153
1.3618e-158
8.22981e-164
4.3671e-169
2.06002e-174
8.65849e-180
3.25397e-185
1.09842e-190
3.34531e-196
9.22281e-202
2.30527e-207
5.22234e-213
1.0704e-218
1.98042e-224
3.30016e-230
4.94447e-236
6.65292e-242
8.03432e-248
8.70655e-254
8.46735e-260
7.39221e-266
5.7955e-272
4.08201e-278
2.58401e-284
1.47062e-290
7.52681e-297
0
0
0
0
0
0
0
0
0
0
0
0
0
0
0
0
0
0
0
0
0
0
0
0
0
2.61361e-201
5.22803e-200
1.02419e-199
1.23628e-199
1.18682e-199
7.79857e-200
7.9637e-200
5.08549e-200
3.78948e-200
2.60104e-200
1.58235e-200
8.54613e-201
3.53439e-201
1.54392e-201
3.59044e-202
3.62276e-203
5.47713e-205
1.2028e-214
6.95738e-215
4.49669e-209
2.86187e-203
1.85102e-197
1.23104e-191
8.2328e-186
5.28717e-180
3.11017e-174
1.61821e-168
7.30523e-163
2.85343e-157
9.65575e-152
1.92602e-146
7.28124e-142
2.97754e-137
9.02341e-133
1.09906e-128
4.09845e-126
1.57291e-123
6.5449e-120
6.42346e-119
2.53878e-117
6.71431e-121
9.26535e-125
9.005e-124
3.9378e-122
9.79336e-125
5.55231e-129
1.5114e-133
2.6195e-138
3.25658e-143
3.10665e-148
2.37357e-153
1.50005e-158
8.06842e-164
3.88931e-169
1.68045e-174
6.51374e-180
2.27162e-185
7.15392e-191
2.04114e-196
5.28642e-202
1.24307e-207
2.65013e-213
5.11037e-219
8.89075e-225
1.39239e-230
1.95982e-236
2.47664e-242
2.80861e-248
2.85793e-254
2.60982e-260
2.1394e-266
1.57491e-272
1.04151e-278
6.18967e-285
3.3066e-291
1.58814e-297
0
0
0
0
0
0
0
0
0
0
0
0
0
0
0
0
0
0
0
0
0
0
0
0
3.36127e-201
7.02659e-200
1.70637e-199
1.65059e-199
1.63305e-199
1.36742e-199
8.96327e-200
7.0379e-200
5.20481e-200
3.91084e-200
2.28235e-200
1.0855e-200
5.38282e-201
1.81173e-201
3.53549e-202
2.51186e-203
9.16996e-206
4.5392e-215
1.5699e-209
1.02154e-203
6.6327e-198
4.3907e-192
2.95318e-186
1.95685e-180
1.22494e-174
6.99478e-169
3.57859e-163
1.64994e-157
7.10058e-152
2.41794e-146
4.16162e-141
1.69955e-136
5.29639e-132
1.46577e-127
1.3625e-123
4.23081e-121
1.31109e-118
5.19519e-115
4.78053e-114
1.89663e-112
5.4066e-116
7.58848e-120
7.55706e-119
3.58031e-117
1.00314e-119
6.10743e-124
1.77683e-128
3.27683e-133
4.31718e-138
4.34855e-143
3.49711e-148
2.3196e-153
1.29955e-158
6.37854e-164
2.82668e-169
1.12847e-174
4.06164e-180
1.32159e-185
3.89936e-191
1.04547e-196
2.54863e-202
5.64326e-208
1.13239e-213