/*--------------------------------*- C++ -*----------------------------------*\
| =========                 |                                                 |
| \\      /  F ield         | OpenFOAM: The Open Source CFD Toolbox           |
|  \\    /   O peration     | Version:  v2012                                 |
|   \\  /    A nd           | Website:  www.openfoam.com                      |
|    \\/     M anipulation  |                                                 |
\*---------------------------------------------------------------------------*/
FoamFile
{
    version     2.0;
    format      ascii;
    class       volScalarField;
    location    "0.0002";
    object      alpha.gas_0;
}
// * * * * * * * * * * * * * * * * * * * * * * * * * * * * * * * * * * * * * //

dimensions      [0 0 0 0 0 0 0];


internalField   nonuniform List<scalar> 
240000
(
7.5502e-205
9.88711e-205
8.75328e-205
7.30146e-205
6.41116e-205
5.03114e-205
4.4099e-205
3.74108e-205
3.03052e-205
2.33122e-205
2.02403e-205
1.29116e-205
8.20385e-206
4.95706e-206
3.01377e-206
1.79163e-206
9.79705e-207
4.55026e-207
1.99807e-207
6.56824e-208
2.58038e-208
9.89994e-209
3.27987e-209
9.0377e-210
1.98649e-210
3.27654e-211
3.09526e-212
7.28e-213
1.35152e-213
1.85072e-214
1.64286e-215
6.01925e-217
4.99197e-221
1.25006e-222
9.87204e-225
4.48983e-228
4.5183e-294
1.21952e-289
3.26749e-288
3.70397e-287
2.49124e-291
7.25399e-295
8.85907e-294
1.40604e-292
1.15888e-295
2.09451e-300
0
0
0
0
0
0
0
0
0
0
0
0
0
0
0
0
0
0
0
0
0
0
0
0
0
0
0
0
0
0
0
0
0
0
0
0
0
2.98118e-297
6.59855e-286
1.55225e-274
3.89609e-263
1.0484e-251
3.04209e-240
4.67123e-237
2.29983e-235
3.30011e-234
4.35787e-233
3.5631e-232
1.67872e-231
5.37896e-231
1.18907e-230
2.01163e-230
2.40653e-230
1.09198e-230
1.07362e-204
3.51605e-204
4.95551e-204
5.2501e-204
4.34584e-204
3.91092e-204
3.39007e-204
2.85661e-204
2.33573e-204
2.44483e-204
2.1554e-204
1.5565e-204
1.06662e-204
6.90433e-205
4.2842e-205
2.68198e-205
1.59389e-205
8.15203e-206
4.21581e-206
1.52561e-206
6.58407e-207
2.63406e-207
9.64657e-208
3.19892e-208
9.68671e-209
2.88898e-209
7.41867e-210
1.60301e-210
2.91071e-211
4.25709e-212
4.70796e-213
3.69964e-214
1.79312e-215
4.37361e-217
3.37646e-219
1.50672e-222
7.42058e-287
1.93122e-282
5.05298e-281
5.9203e-280
4.07816e-284
1.15938e-287
1.41402e-286
2.28107e-285
1.89898e-288
3.54069e-293
3.23033e-298
0
0
0
0
0
0
0
0
0
0
0
0
0
0
0
0
0
0
0
0
0
0
0
0
0
0
0
0
0
0
0
0
0
0
0
0
1.73379e-295
3.61798e-284
7.97368e-273
1.86157e-261
4.62049e-250
1.22441e-238
4.00761e-235
2.33258e-233
3.43667e-232
3.24741e-231
1.68672e-230
6.60721e-230
1.38712e-229
2.50367e-229
3.00844e-229
1.83242e-229
1.70537e-230
1.21891e-204
5.6041e-204
8.92587e-204
8.8059e-204
8.6646e-204
7.83244e-204
6.72398e-204
5.57753e-204
5.84818e-204
5.63523e-204
3.83035e-204
3.21803e-204
2.26954e-204
1.51877e-204
9.55536e-205
6.07862e-205
3.6221e-205
1.58492e-205
7.23012e-206
4.54996e-206
1.6203e-206
6.67011e-207
2.47505e-207
8.20524e-208
2.55742e-208
7.78388e-209
2.07232e-209
4.62594e-210
8.40303e-211
1.19321e-211
1.24903e-212
8.90566e-214
3.71768e-215
7.18919e-217
3.20577e-219
5.07682e-224
5.96156e-280
1.4947e-275
3.81811e-274
4.62391e-273
3.26533e-277
9.06189e-281
1.10357e-279
1.8107e-278
1.52349e-281
2.93175e-286
2.76543e-291
1.68622e-296
0
0
0
0
0
0
0
0
0
0
0
0
0
0
0
0
0
0
0
0
0
0
0
0
0
0
0
0
0
0
0
0
0
0
0
0
3.01312e-292
6.83786e-281
1.64264e-269
4.19326e-258
1.14268e-246
3.34161e-235
3.09403e-233
6.35465e-232
6.06104e-231
3.04263e-230
1.12147e-229
2.51561e-229
4.4595e-229
4.96539e-229
2.59559e-229
9.59259e-231
1.18423e-204
7.42887e-204
1.0751e-203
1.24161e-203
1.2408e-203
1.1341e-203
9.21541e-204
1.115e-203
6.9537e-204
6.70891e-204
5.74999e-204
4.14985e-204
2.97374e-204
1.98294e-204
1.04463e-204
6.54437e-205
3.21092e-205
1.82809e-205
9.76583e-206
4.82782e-206
2.1855e-206
8.95893e-207
3.29156e-207
1.06742e-207
3.40147e-208
1.00405e-208
2.54414e-209
5.35915e-210
9.00749e-211
1.15227e-211
1.04928e-212
6.08354e-214
1.91348e-215
2.1072e-217
2.15307e-220
3.91726e-235
3.11275e-273
7.51169e-269
1.87284e-267
2.34456e-266
1.69914e-270
4.60219e-274
5.5956e-273
9.34468e-272
7.95224e-275
1.58014e-279
1.54184e-284
9.74113e-290
4.46597e-295
1.58045e-300
0
0
0
0
0
0
0
0
0
0
0
0
0
0
0
0
0
0
0
0
0
0
0
0
0
0
0
0
0
0
0
0
0
0
5.57025e-293
1.31321e-281
3.26923e-270
8.62732e-259
2.42429e-247
7.29106e-236
1.31499e-233
3.041e-232
4.17917e-231
2.1333e-230
1.11236e-229
2.30661e-229
4.18522e-229
4.58372e-229
2.16725e-229
3.77185e-231
1.32261e-204
8.23359e-204
1.56872e-203
1.60132e-203
1.52344e-203
1.33682e-203
1.45465e-203
1.45116e-203
1.00559e-203
8.58531e-204
6.5627e-204
4.77684e-204
3.24577e-204
1.82351e-204
9.24549e-205
5.91758e-205
3.59955e-205
2.05568e-205
1.08544e-205
5.30212e-206
2.3535e-206
9.40474e-207
3.33347e-207
1.04737e-207
3.40277e-208
9.45138e-209
2.21289e-209
4.18979e-210
6.1418e-211
6.54762e-212
4.69959e-213
1.9951e-214
3.63195e-216
1.22355e-218
2.678e-231
4.58937e-247
1.18418e-266
2.74785e-262
6.685e-261
8.65224e-260
6.44223e-264
1.70259e-267
2.06653e-266
3.51532e-265
3.02819e-268
6.21605e-273
6.27757e-278
4.11166e-283
1.9573e-288
7.20229e-294
2.11727e-299
0
0
0
0
0
0
0
0
0
0
0
0
0
0
0
0
0
0
0
0
0
0
0
0
0
0
0
0
0
0
0
0
0
9.43266e-295
2.3448e-283
6.13157e-272
1.69318e-260
4.95867e-249
1.54754e-237
2.20524e-234
1.01837e-232
1.41351e-231
1.02165e-230
4.72162e-230
1.39541e-229
2.64555e-229
2.95209e-229
1.34088e-229
8.89879e-232
1.68002e-204
1.02578e-203
1.69462e-203
1.92301e-203
1.82747e-203
2.0947e-203
1.69022e-203
1.61322e-203
1.26001e-203
9.6122e-204
7.1463e-204
4.10533e-204
2.3859e-204
1.51168e-204
9.87724e-205
6.33667e-205
3.8154e-205
2.13576e-205
1.10736e-205
5.70015e-206
2.25748e-206
8.6365e-207
2.92505e-207
9.52364e-208
2.88368e-208
7.36142e-209
1.53555e-209
2.50003e-210
3.37997e-211
2.54606e-212
1.52554e-213
3.64351e-215
2.23658e-217
2.40485e-221
6.57055e-243
5.53827e-258
3.4892e-260
7.77732e-256
1.84567e-254
2.47034e-253
1.8921e-257
4.87769e-261
5.90929e-260
1.02475e-258
8.94404e-262
1.89757e-266
1.98445e-271
1.34819e-276
6.66764e-282
2.55268e-287
7.81957e-293
1.98326e-298
0
0
0
0
0
0
0
0
0
0
0
0
0
0
0
0
0
0
0
0
0
0
0
0
0
0
0
0
0
0
0
0
0
3.37401e-293
9.61991e-282
2.89227e-270
9.22011e-259
3.13607e-247
1.14631e-235
1.51735e-233
3.13977e-232
3.20692e-231
1.80879e-230
6.10887e-230
1.25368e-229
1.46227e-229
6.54231e-230
2.09844e-232
1.83216e-204
1.26507e-203
2.11205e-203
2.35859e-203
2.95829e-203
3.02837e-203
2.35797e-203
1.8482e-203
1.4206e-203
1.0708e-203
6.62588e-204
4.53098e-204
3.00857e-204
1.61988e-204
1.08168e-204
6.80582e-205
4.53278e-205
2.18718e-205
1.19339e-205
5.02739e-206
2.05835e-206
7.56281e-207
2.43474e-207
7.96929e-208
2.20559e-208
5.02857e-209
9.00225e-210
1.19943e-210
1.35389e-211
8.02456e-213
2.34717e-214
2.0787e-216
9.82803e-220
5.20291e-232
1.14167e-253
7.86165e-258
8.26725e-254
1.76809e-249
4.09169e-248
5.66561e-247
4.47011e-251
1.12355e-254
1.35841e-253
2.40351e-252
2.12767e-255
4.66775e-260
5.05752e-265
3.56576e-270
1.83313e-275
7.306e-281
2.33352e-286
6.17722e-292
1.37669e-297
0
0
0
0
0
0
0
0
0
0
0
0
0
0
0
0
0
0
0
0
0
0
0
0
0
0
0
0
0
0
0
0
7.88105e-296
2.46203e-284
8.05671e-273
2.77751e-261
1.01523e-249
3.96189e-238
1.01933e-234
5.30218e-233
6.74719e-232
4.98072e-231
1.99536e-230
4.583e-230
5.67391e-230
2.53562e-230
8.82261e-233
2.42796e-204
1.62713e-203
2.69278e-203
2.96344e-203
4.04336e-203
3.6206e-203
2.8445e-203
2.19725e-203
1.66497e-203
1.18625e-203
7.33632e-204
4.20113e-204
2.83362e-204
1.86909e-204
1.22655e-204
7.57474e-205
4.79627e-205
2.29331e-205
1.17567e-205
4.82332e-206
1.90004e-206
6.58069e-207
2.13095e-207
6.36448e-208
1.57818e-208
3.09183e-209
4.54184e-210
5.73065e-211
3.86702e-212
1.33608e-213
1.54691e-215
1.59214e-218
2.7959e-230
2.32948e-243
1.53027e-255
1.69996e-251
1.61513e-247
3.31016e-243
7.46725e-242
1.07028e-240
8.71206e-245
2.13381e-248
2.57397e-247
4.65098e-246
4.18048e-249
9.4879e-254
1.06561e-258
7.80051e-264
4.17062e-269
1.73136e-274
5.76918e-280
1.59493e-285
3.71609e-291
7.39322e-297
0
0
0
0
0
0
0
0
0
0
0
0
0
0
0
0
0
0
0
0
0
0
0
0
0
0
0
0
0
0
0
0
1.21738e-294
4.53972e-283
1.77435e-271
7.32678e-260
3.22467e-248
1.52791e-236
3.57524e-234
9.52944e-233
9.6053e-232
4.86132e-231
1.29047e-230
1.73955e-230
8.78896e-231
2.99759e-233
3.27468e-204
2.14466e-203
3.53458e-203
3.85291e-203
5.76485e-203
4.5826e-203
3.57988e-203
2.73945e-203
2.05306e-203
1.22978e-203
7.27834e-204
6.08424e-204
3.38913e-204
2.26353e-204
1.6588e-204
9.79464e-205
5.33563e-205
2.49628e-205
1.15145e-205
4.80449e-206
1.78303e-206
5.72063e-207
1.84126e-207
4.93725e-208
1.05681e-208
1.71175e-209
2.38498e-210
1.82037e-211
7.3221e-213
1.0655e-214
1.87563e-217
5.74523e-229
1.51538e-241
1.04956e-253
2.94119e-249
3.08775e-245
2.6484e-241
5.1942e-237
1.14171e-235
1.69522e-234
1.42613e-238
3.4012e-242
4.0921e-241
7.5583e-240
6.90635e-243
1.62227e-247
1.88945e-252
1.43666e-257
7.99213e-263
3.45745e-268
1.20255e-273
3.47394e-279
8.46681e-285
1.76379e-290
3.1714e-296
0
0
0
0
0
0
0
0
0
0
0
0
0
0
0
0
0
0
0
0
0
0
0
0
0
0
0
0
0
0
0
0
2.38921e-294
1.08863e-282
5.19669e-271
2.62656e-259
1.4224e-247
8.36358e-236
7.41516e-234
1.22483e-232
8.42046e-232
2.71214e-231
4.06636e-231
1.92363e-231
7.82049e-234
4.47421e-204
2.89055e-203
4.77835e-203
5.18533e-203
7.64569e-203
6.07907e-203
4.74326e-203
3.58015e-203
2.65252e-203
1.58464e-203
1.13528e-203
6.40992e-204
4.25448e-204
2.86633e-204
1.81663e-204
1.41423e-204
5.75374e-205
3.1467e-205
1.23836e-205
4.91368e-206
1.68221e-206
5.42854e-207
1.5709e-207
3.67645e-208
6.56711e-209
1.00318e-209
8.67178e-211
4.06319e-212
7.33594e-214
2.00576e-216
8.34106e-228
3.7521e-240
5.82648e-252
7.19511e-248
4.81126e-243
4.77558e-239
3.69349e-235
6.92124e-231
1.48162e-229
2.28139e-228
1.98739e-232
4.61095e-236
5.5305e-235
1.04522e-233
9.7214e-237
2.3643e-241
2.85661e-246
2.25689e-251
1.30679e-256
5.89361e-262
2.14064e-267
6.46495e-273
1.64909e-278
3.59906e-284
6.78568e-290
1.11363e-295
0
0
0
0
0
0
0
0
0
0
0
0
0
0
0
0
0
0
0
0
0
0
0
0
0
0
0
0
0
0
0
2.01636e-298
1.10969e-286
6.29021e-275
3.71964e-263
2.32525e-251
1.5586e-239
2.02606e-235
8.89151e-234
9.38112e-233
3.97245e-232
6.89451e-232
3.94637e-232
1.45127e-234
6.1755e-204
3.9964e-203
6.63154e-203
7.20144e-203
1.04499e-202
8.41728e-203
6.50219e-203
4.0907e-203
3.55292e-203
2.11479e-203
1.22303e-203
8.50964e-204
5.66825e-204
5.14334e-204
3.25785e-204
1.84012e-204
7.88181e-205
3.96725e-205
1.37283e-205
5.06217e-206
1.62889e-206
5.12126e-207
1.30823e-207
2.86459e-208
4.33095e-209
4.26027e-210
2.33837e-211
5.23924e-213
2.15361e-215
1.25138e-226
6.52818e-239
1.6738e-250
8.73758e-247
1.05422e-241
6.774e-237
6.35742e-233
4.42664e-229
7.91133e-225
1.64841e-223
2.6358e-222
2.3828e-226
5.37194e-230
6.41919e-229
1.2426e-227
1.17798e-230
2.96724e-235
3.71999e-240
3.05451e-245
1.84131e-250
8.65969e-256
3.28564e-261
1.03782e-266
2.77193e-272
6.34097e-278
1.25424e-283
2.16111e-289
3.26321e-295
0
0
0
0
0
0
0
0
0
0
0
0
0
0
0
0
0
0
0
0
0
0
0
0
0
0
0
0
0
0
0
7.08574e-298
5.19198e-286
3.88739e-274
3.02842e-262
2.5007e-250
2.23255e-238
2.2782e-235
5.61478e-234
3.58048e-233
9.38547e-233
4.38129e-233
1.65726e-235
8.57855e-204
5.65108e-203
9.60548e-203
1.04837e-202
1.09441e-202
9.04879e-203
9.19087e-203
5.41459e-203
4.01838e-203
2.35733e-203
1.99332e-203
1.32511e-203
1.10235e-203
7.14452e-204
4.29138e-204
2.35693e-204
1.16081e-204
4.0973e-205
1.52786e-205
5.25579e-206
1.69301e-206
4.71813e-207
1.26978e-207
1.98724e-208
2.16323e-209
1.40462e-210
3.94911e-212
2.42687e-214
7.10859e-219
2.11591e-237
3.47042e-249
6.77629e-246
1.15711e-240
1.3425e-235
8.28871e-231
7.35111e-227
4.59855e-223
7.82205e-219
1.58528e-217
2.63679e-216
2.4796e-220
5.42442e-224
6.45199e-223
1.28058e-221
1.23915e-224
3.23353e-229
4.20674e-234
3.59019e-239
2.25331e-244
1.10521e-249
4.38123e-255
1.44776e-260
4.05032e-266
9.71559e-272
2.01702e-277
3.65055e-283
5.79357e-289
8.10144e-295
1.00219e-300
0
0
0
0
0
0
0
0
0
0
0
0
0
0
0
0
0
0
0
0
0
0
0
0
0
0
0
0
0
0
1.66343e-298
1.74427e-286
1.8422e-274
2.01324e-262
2.33792e-250
2.96832e-238
1.10478e-235
1.61476e-234
5.63296e-234
3.70996e-234
9.18261e-237
1.19911e-203
1.11649e-202
1.38623e-202
1.52575e-202
1.59902e-202
1.32352e-202
1.03267e-202
6.58311e-203
5.70104e-203
3.99531e-203
3.3077e-203
2.18664e-203
1.53578e-203
9.79359e-204
5.74675e-204
3.05046e-204
1.19694e-204
5.48233e-205
1.71802e-205
5.56175e-206
1.70844e-206
5.20174e-207
9.33116e-208
1.13016e-208
8.73279e-210
3.12327e-211
2.86131e-213
4.75668e-217
6.51464e-229
8.02765e-248
3.75356e-245
8.17645e-240
1.34275e-234
1.49952e-229
8.89394e-225
7.44315e-221
4.17212e-217
6.73793e-213
1.32718e-211
2.30096e-210
2.25669e-214
4.78258e-218
5.65576e-217
1.1522e-215
1.13974e-218
3.08142e-223
4.15964e-228
3.68931e-233
2.41045e-238
1.23287e-243
5.10615e-249
1.76537e-254
5.17428e-260
1.30185e-265
2.83773e-271
5.39693e-277
9.00623e-283
1.32489e-288
1.72483e-294
1.99379e-300
0
0
0
0
0
0
0
0
0
0
0
0
0
0
0
0
0
0
0
0
0
0
0
0
0
0
0
0
0
0
2.68821e-300
4.55137e-288
7.51976e-276
1.26657e-263
2.26466e-251
4.48471e-239
1.92057e-236
1.24062e-235
1.10627e-235
8.44148e-239
1.76309e-203
1.64278e-202
2.95403e-202
2.98144e-202
2.03365e-202
1.92097e-202
1.5217e-202
9.29884e-203
6.6781e-203
6.79556e-203
4.51743e-203
3.23297e-203
2.17168e-203
1.35579e-203
7.2142e-204
3.94229e-204
1.70249e-204
5.47303e-205
2.35782e-205
7.71879e-206
2.09011e-206
4.32175e-207
6.18789e-208
5.48495e-209
2.52682e-210
2.99386e-212
2.07604e-215
5.49502e-227
2.09142e-239
1.58316e-244
4.15409e-239
8.70402e-234
1.37751e-228
1.48278e-223
8.44366e-219
6.64901e-215
3.32909e-211
5.0903e-207
9.73519e-206
1.76342e-204
1.80859e-208
3.70651e-212
4.35165e-211
9.10916e-210
9.22584e-213
2.5843e-217
3.61867e-222
3.33419e-227
2.26674e-232
1.2085e-237
5.22774e-243
1.89076e-248
5.80592e-254
1.53239e-259
3.50791e-265
7.01269e-271
1.23095e-276
1.90574e-282
2.61203e-288
3.17956e-294
3.44681e-300
0
0
0
0
0
0
0
0
0
0
0
0
0
0
0
0
0
0
0
0
0
0
0
0
0
0
0
0
0
0
0
0
1.91163e-288
6.09549e-276
2.0429e-263
7.73701e-251
3.61788e-238
8.67438e-238
2.39465e-244
2.47962e-203
2.72151e-202
4.94935e-202
3.93602e-202
2.97476e-202
2.43482e-202
1.8624e-202
1.36703e-202
9.70779e-203
9.81599e-203
6.71061e-203
4.70763e-203
3.10536e-203
1.8891e-203
9.7923e-204
4.61378e-204
1.67964e-204
8.01856e-205
2.66483e-205
8.17909e-206
1.93695e-206
3.2915e-207
3.52136e-208
2.03212e-209
3.57771e-211
6.87986e-214
2.90916e-225
2.53931e-237
5.29904e-244
1.61573e-238
4.07893e-233
8.2459e-228
1.26129e-222
1.31087e-217
7.15681e-213
5.27709e-209
2.35197e-205
3.39397e-201
6.29525e-200
1.19436e-198
1.28429e-202
2.54066e-206
2.95642e-205
6.36574e-204
6.61254e-207
1.91885e-211
2.78566e-216
2.66466e-221
1.88358e-226
1.04598e-231
4.72284e-237
1.78609e-242
5.74442e-248
1.59034e-253
3.82351e-259
8.03584e-265
1.48408e-270
2.41878e-276
3.49138e-282
4.47699e-288
5.11333e-294
5.21361e-300
0
0
0
0
0
0
0
0
0
0
0
0
0
0
0
0
0
0
0
0
0
0
0
0
0
0
0
0
0
0
0
0
0
0
2.69726e-293
3.10351e-280
4.80197e-267
1.40592e-253
4.08807e-203
4.01961e-202
7.37431e-202
5.05937e-202
4.47726e-202
3.65023e-202
2.78096e-202
2.02655e-202
1.72866e-202
1.43515e-202
1.00304e-202
6.9274e-203
4.46952e-203
2.6424e-203
1.26136e-203
5.39027e-204
2.60639e-204
9.03984e-205
3.04995e-205
8.31487e-206
1.67176e-206
2.2079e-207
1.5909e-208
4.10293e-210
1.85503e-212
1.13432e-223
1.76236e-235
1.44863e-243
5.00882e-238
1.46985e-232
3.58439e-227
7.01942e-222
1.04147e-216
1.04696e-211
5.46446e-207
3.74399e-203
1.48035e-199
2.00897e-195
3.60927e-194
7.18882e-193
8.12257e-197
1.54879e-200
1.78312e-199
3.95378e-198
4.22036e-201
1.26851e-205
1.90805e-210
1.89321e-215
1.38998e-220
8.03073e-226
3.78083e-231
1.49381e-236
5.02892e-242
1.4598e-247
3.68534e-253
8.14276e-259
1.5824e-264
2.71552e-270
4.12901e-276
5.5789e-282
6.71501e-288
7.21587e-294
6.93596e-300
0
0
0
0
0
0
0
0
0
0
0
0
0
0
0
0
0
0
0
0
0
0
0
0
0
0
0
0
0
0
0
0
0
0
0
0
0
5.76092e-203
5.95649e-202
1.10082e-201
7.61254e-202
6.76874e-202
5.48698e-202
4.16713e-202
3.02134e-202
3.08125e-202
2.11972e-202
1.51566e-202
1.02823e-202
6.46013e-203
3.45218e-203
1.38365e-203
8.11534e-204
2.64897e-204
1.07846e-204
3.38543e-205
8.00619e-206
1.30392e-206
1.23185e-207
4.39952e-209
4.16332e-211
1.51147e-216
8.52244e-234
3.31279e-243
1.27239e-237
4.23602e-232
1.20228e-226
2.84687e-221
5.42573e-216
7.83917e-211
7.63258e-206
3.78945e-201
2.3855e-197
8.34332e-194
1.06098e-189
1.84362e-188
3.86178e-187
4.59217e-191
8.43292e-195
9.59058e-194
2.19265e-192
2.41038e-195
7.50389e-200
1.16886e-204
1.20187e-209
9.15356e-215
5.49432e-220
2.69315e-225
1.11022e-230
3.90811e-236
1.18857e-241
3.1492e-247
7.31309e-253
1.49528e-258
2.70195e-264
4.3283e-270
6.16326e-276
7.81942e-282
8.85743e-288
8.97441e-294
8.14653e-300
0
0
0
0
0
0
0
0
0
0
0
0
0
0
0
0
0
0
0
0
0
0
0
0
0
0
0
0
0
0
0
0
0
0
0
0
8.09207e-203
8.8309e-202
1.64249e-201
1.57781e-201
1.01769e-201
8.25874e-202
6.25708e-202
4.68164e-202
4.62415e-202
3.25318e-202
2.30634e-202
1.53394e-202
9.3616e-203
4.62499e-203
1.94792e-203
9.76033e-204
3.71928e-204
1.29657e-204
3.61132e-205
7.16231e-206
8.81058e-207
4.90683e-208
7.78719e-210
3.76043e-213
1.9162e-224
7.02748e-243
2.70167e-237
1.00287e-231
3.2332e-226
8.93306e-221
2.06634e-215
3.84881e-210
5.43362e-205
5.12537e-200
2.40253e-195
1.36827e-191
4.22415e-188
5.01586e-184
8.41747e-183
1.85583e-181
2.32446e-185
4.11144e-189
4.61361e-188
1.08915e-186
1.23634e-189
3.98765e-194
6.43127e-199
6.84807e-204
5.40403e-209
3.36465e-214
1.71409e-219
7.35974e-225
2.70476e-230
8.60761e-236
2.39141e-241
5.83308e-247
1.25442e-252
2.38642e-258
4.02739e-264
6.04411e-270
8.08364e-276
9.65349e-282
1.03113e-287
9.86657e-294
8.46919e-300
0
0
0
0
0
0
0
0
0
0
0
0
0
0
0
0
0
0
0
0
0
0
0
0
0
0
0
0
0
0
0
0
0
0
0
1.13021e-202
1.30442e-201
2.43913e-201
2.3874e-201
1.93717e-201
1.33637e-201
1.20159e-201
8.60043e-202
6.89022e-202
4.46042e-202
3.1506e-202
2.08779e-202
1.03601e-202
5.28466e-203
3.11028e-203
1.30716e-203
4.63744e-204
1.51605e-204
3.63966e-205
5.76102e-206
4.84774e-207
1.27894e-208
4.07704e-211
7.83692e-222
1.17225e-233
4.86425e-237
1.9878e-231
7.15364e-226
2.25083e-220
6.10246e-215
1.38721e-209
2.52966e-204
3.4961e-199
3.19103e-194
1.39871e-189
7.06503e-186
1.92246e-182
2.12484e-178
3.43868e-177
7.97851e-176
1.05284e-179
1.79561e-183
1.98693e-182
4.85169e-181
5.70495e-184
1.90786e-188
3.18726e-193
3.51385e-198
2.87109e-203
1.85182e-208
9.78737e-214
4.36813e-219
1.67264e-224
5.5602e-230
1.6175e-235
4.13985e-241
9.35741e-247
1.87336e-252
3.32993e-258
5.26643e-264
7.42497e-270
9.34819e-276
1.0527e-281
1.06184e-287
9.60639e-294
7.80408e-300
0
0
0
0
0
0
0
0
0
0
0
0
0
0
0
0
0
0
0
0
0
0
0
0
0
0
0
0
0
0
0
0
0
0
1.56402e-202
1.91339e-201
3.59986e-201
3.479e-201
3.10709e-201
2.44954e-201
1.79043e-201
1.4594e-201
9.31153e-202
6.87583e-202
4.83354e-202
3.13244e-202
1.75562e-202
9.95282e-203
4.09371e-203
1.63426e-203
5.87921e-204
1.70439e-204
3.40155e-205
3.98606e-206
1.95264e-207
1.73188e-209
6.27498e-219
3.63343e-229
7.5088e-237
3.34367e-231
1.32598e-225
4.66819e-220
1.44826e-214
3.88961e-209
8.72663e-204
1.55174e-198
2.09796e-193
1.848e-188
7.4943e-184
3.27798e-180
7.85133e-177
8.05517e-173
1.25535e-171
3.06277e-170
4.25857e-174
7.01553e-178
7.65398e-177
1.93697e-175
2.36796e-178
8.22089e-183
1.42408e-187
1.62636e-192
1.37603e-197
9.18821e-203
5.03133e-208
2.32955e-213
9.2737e-219
3.21303e-224
9.76814e-230
2.61928e-235
6.21568e-241
1.30853e-246
2.4486e-252
4.07981e-258
6.06244e-264
8.04625e-270
9.55203e-276
1.01562e-281
9.68356e-288
8.28889e-294
6.37614e-300
0
0
0
0
0
0
0
0
0
0
0
0
0
0
0
0
0
0
0
0
0
0
0
0
0
0
0
0
0
0
0
0
0
2.12832e-202
2.78018e-201
5.32539e-201
5.24708e-201
4.60485e-201
3.63364e-201
2.73369e-201
1.92126e-201
1.43386e-201
1.06472e-201
7.38272e-202
3.64372e-202
2.19322e-202
1.37992e-202
5.7145e-203
2.09087e-203
7.24154e-204
1.81151e-204
2.86177e-205
2.22109e-206
4.64368e-208
1.43928e-211
5.04894e-222
2.46846e-233
4.81888e-231
2.08531e-225
8.10627e-220
2.82688e-214
8.76671e-209
2.35747e-203
5.22102e-198
8.92216e-193
1.17535e-187
9.95482e-183
3.69808e-178
1.36328e-174
2.86822e-171
2.72508e-167
4.08475e-166
1.0471e-164
1.53497e-168
2.44773e-172
2.6329e-171
6.92072e-170
8.83155e-173
3.18755e-177
5.73304e-182
6.78935e-187
5.95312e-192
4.11623e-197
2.33405e-202
1.1196e-207
4.62409e-213
1.66578e-218
5.27995e-224
1.48025e-229
3.68189e-235
8.14095e-241
1.60238e-246
2.81115e-252
4.40105e-258
6.15611e-264
7.70289e-270
8.63194e-276
8.67274e-282
7.82087e-288
6.33616e-294
4.61587e-300
0
0
0
0
0
0
0
0
0
0
0
0
0
0
0
0
0
0
0
0
0
0
0
0
0
0
0
0
0
0
0
0
2.83448e-202
3.99601e-201
7.81975e-201
8.64187e-201
7.96015e-201
5.51097e-201
4.60102e-201
3.24029e-201
1.76196e-201
1.63783e-201
8.74606e-202
5.41438e-202
4.07473e-202
1.902e-202
7.49032e-203
2.77487e-203
8.56626e-204
1.78371e-204
2.07213e-205
8.84504e-207
3.57202e-209
1.82412e-219
1.51285e-230
5.98829e-231
2.80672e-225
1.19247e-219
4.61001e-214
1.62108e-208
5.11729e-203
1.39269e-197
3.02312e-192
4.81655e-187
6.13409e-182
4.97511e-177
1.68027e-172
5.07405e-169
9.34356e-166
8.20456e-162
1.18187e-160
3.18334e-159
4.92806e-163
7.62353e-167
8.08262e-166
2.21203e-164
2.95896e-167
1.11154e-171
2.07746e-176
2.55367e-181
2.32292e-186
1.66462e-191
9.77802e-197
4.85704e-202
2.07835e-207
7.76801e-213
2.56057e-218
7.48685e-224
1.94776e-229
4.51561e-235
9.33729e-241
1.72325e-246
2.8406e-252
4.18568e-258
5.5184e-264
6.51582e-270
6.89695e-276
6.55078e-282
5.58818e-288
4.28505e-294
2.95584e-300
0
0
0
0
0
0
0
0
0
0
0
0
0
0
0
0
0
0
0
0
0
0
0
0
0
0
0
0
0
0
0
3.65656e-202
5.52294e-201
1.13918e-200
1.29292e-200
1.17426e-200
9.39772e-201
5.98393e-201
3.63983e-201
2.69949e-201
1.95967e-201
1.31421e-201
7.99221e-202
5.52459e-202
2.59766e-202
9.5931e-203
3.56944e-203
9.59022e-204
1.58341e-204
1.21057e-205
1.96407e-207
1.19561e-214
2.00051e-224
6.4415e-231
3.25076e-225
1.49751e-219
6.34704e-214
2.49268e-208
9.05848e-203
2.97102e-197
8.23732e-192
1.72538e-186
2.44152e-181
2.97011e-176
2.2975e-171
7.02755e-167
1.69149e-163
2.71089e-160
2.19699e-156
3.04111e-155
8.6217e-154
1.41399e-157
2.1267e-161
2.22058e-160
6.34369e-159
8.93277e-162
3.49283e-166
6.77976e-171
8.65154e-176
8.166e-181
6.06879e-186
3.69571e-191
1.90177e-196
8.42777e-202
3.26354e-207
1.11625e-212
3.39509e-218
9.21477e-224
2.23511e-229
4.847e-235
9.39827e-241
1.62964e-246
2.52785e-252
3.50968e-258
4.36457e-264
4.86533e-270
4.86564e-276
4.36899e-282
3.52515e-288
2.55769e-294
1.66986e-300
0
0
0
0
0
0
0
0
0
0
0
0
0
0
0
0
0
0
0
0
0
0
0
0
0
0
0
0
0
0
4.86867e-202
7.79236e-201
1.64383e-200
1.88506e-200
1.72314e-200
1.38252e-200
1.02359e-200
5.32846e-201
4.09282e-201
2.9514e-201
1.95677e-201
1.43917e-201
7.83458e-202
3.48927e-202
1.3036e-202
4.40659e-203
9.98442e-204
1.22351e-204
5.09885e-206
1.09517e-208
7.98744e-219
1.1164e-229
3.24849e-225
1.61242e-219
7.42531e-214
3.21503e-208
1.32067e-202
5.09416e-197
1.75952e-191
4.95325e-186
9.82151e-181
1.16257e-175
1.32906e-170
9.76854e-166
2.70875e-161
5.07699e-158
7.02816e-155
5.25496e-151
6.99818e-150
2.09693e-148
3.66106e-152
5.36643e-156
5.50874e-155
1.64702e-153
2.45076e-156
9.95751e-161
2.00146e-165
2.64701e-170
2.58717e-175
1.99262e-180
1.25811e-185
6.71026e-191
3.0806e-196
1.23537e-201
4.37806e-207
1.38198e-212
3.90291e-218
9.87946e-224
2.242e-229
4.55947e-235
8.30558e-241
1.3549e-246
1.97954e-252
2.59114e-258
3.04034e-264
3.19994e-270
3.02313e-276
2.56553e-282
1.95706e-288
1.34281e-294
0
0
0
0
0
0
0
0
0
0
0
0
0
0
0
0
0
0
0
0
0
0
0
0
0
0
0
0
0
0
6.72319e-202
9.2435e-201
2.35386e-200
2.73158e-200
2.51056e-200
2.01878e-200
1.27355e-200
8.02098e-201
6.1367e-201
4.39567e-201
2.88069e-201
1.68862e-201
1.09175e-201
4.57518e-202
1.72734e-202
5.16225e-203
9.48204e-204
7.83474e-205
1.22488e-206
3.99484e-214
9.4909e-224
2.80104e-225
1.49076e-219
7.40365e-214
3.49486e-208
1.59579e-202
7.06147e-197
2.93123e-191
1.06078e-185
2.99315e-180
5.55816e-175
5.22075e-170
5.49695e-165
3.82401e-160
9.67988e-156
1.38988e-152
1.64808e-149
1.1372e-145
1.46065e-144
4.65291e-143
8.68405e-147
1.24366e-150
1.25316e-149
3.92994e-148
6.19739e-151
2.60792e-155
5.40064e-160
7.37017e-165
7.41573e-170
5.89851e-175
3.85371e-180
2.12911e-185
1.01278e-190
4.20659e-196
1.54374e-201
5.04953e-207
1.48042e-212
3.90053e-218
9.24004e-224
1.96669e-229
3.75725e-235
6.43743e-241
9.887e-247
1.3611e-252
1.67991e-258
1.85967e-264
1.84749e-270
1.64814e-276
1.32113e-282
9.52129e-289
6.17292e-295
0
0
0
0
0
0
0
0
0
0
0
0
0
0
0
0
0
0
0
0
0
0
0
0
0
0
0
0
0
8.2127e-202
1.03173e-200
3.34114e-200
3.92718e-200
3.63549e-200
2.9235e-200
2.10612e-200
1.1926e-200
9.08382e-201
6.46209e-201
4.19129e-201
2.40262e-201
1.22619e-201
5.82499e-202
2.20218e-202
5.68099e-203
8.02425e-204
3.81693e-205
8.05826e-208
9.14477e-218
2.08034e-225
1.18185e-219
6.29097e-214
3.20576e-208
1.6023e-202
7.94743e-197
3.82995e-191
1.69054e-185
6.27602e-180
1.75307e-174
3.07265e-169
2.24086e-164
2.12469e-159
1.38921e-154
3.2544e-150
3.55527e-147
3.51179e-144
2.19656e-140
2.6916e-139
9.04555e-138
1.80112e-141
2.53043e-145
2.51167e-144
8.34115e-143
1.41581e-145
6.26268e-150
1.3523e-154
1.89112e-159
1.94009e-164
1.58152e-169
1.06333e-174
6.0666e-180
2.98665e-185
1.28466e-190
4.88155e-196
1.65338e-201
5.02388e-207
1.37456e-212
3.39045e-218
7.53468e-224
1.50658e-229
2.70661e-235
4.3642e-241
6.31207e-247
8.18747e-253
9.52577e-259
9.94441e-265
9.31961e-271
7.84502e-277
5.93487e-283
4.0372e-289
2.47064e-295
0
0
0
0
0
0
0
0
0
0
0
0
0
0
0
0
0
0
0
0
0
0
0
0
0
0
0
0
1.10146e-201
1.75939e-200
4.70616e-200
5.60312e-200
5.21688e-200
4.19439e-200
3.09777e-200
1.75068e-200
1.32714e-200
9.37368e-201
6.00518e-201
3.35691e-201
1.6302e-201
7.79211e-202
2.68098e-202
5.81087e-203
5.8742e-204
1.20993e-205
1.08669e-212
3.6274e-222
8.00023e-220
4.54079e-214
2.47588e-208
1.33534e-202
7.26603e-197
3.9428e-191
2.03137e-185
9.2623e-180
3.4547e-174
9.54683e-169
1.62885e-163
9.48227e-159
7.92675e-154
4.77327e-149
1.00376e-144
8.13834e-142
6.48964e-139
3.65574e-135
4.25868e-134
1.50423e-132
3.2007e-136
4.43412e-140
4.34584e-139
1.535e-137
2.82817e-140
1.32316e-144
3.01038e-149
4.41159e-154
4.68729e-159
3.87117e-164
2.65313e-169
1.55256e-174
7.88247e-180
3.50615e-185
1.37894e-190
4.83449e-196
1.52106e-201
4.31432e-207
1.1055e-212
2.5589e-218
5.34312e-224
1.00458e-229
1.69786e-235
2.57662e-241
3.50866e-247
4.28635e-253
4.69824e-259
4.62192e-265
4.08263e-271
3.23968e-277
2.31061e-283
1.48189e-289
8.54959e-296
0
0
0
0
0
0
0
0
0
0
0
0
0
0
0
0
0
0
0
0
0
0
0
0
0
0
0
1.45965e-201
2.82963e-200
6.57757e-200
7.92414e-200
7.41398e-200
5.94697e-200
3.79991e-200
2.53468e-200
1.91144e-200
1.33953e-200
8.45605e-201
4.58898e-201
2.10739e-201
1.01387e-201
3.10999e-202
5.47458e-203
3.56927e-204
1.67871e-206
2.82569e-216
4.58983e-220
2.76603e-214
1.60083e-208
9.18962e-203
5.37306e-197
3.19281e-191
1.85189e-185
9.85949e-180
4.52525e-174
1.68328e-168
4.68871e-163
8.25843e-158
4.16033e-153
2.88797e-148
1.44549e-143
2.63589e-139
1.61292e-136
1.02139e-133
5.1763e-130
5.71686e-129
2.11106e-127
4.8086e-131
6.60799e-135
6.42034e-134
2.42189e-132
4.88151e-135
2.42363e-139
5.8294e-144
8.99998e-149
1.00401e-153
8.64976e-159
6.0124e-164
3.57241e-169
1.85847e-174
8.52024e-180
3.46314e-185
1.25601e-190
4.08943e-196
1.20111e-201
3.19162e-207
7.67795e-213
1.67038e-218
3.27983e-224
5.80005e-230
9.22154e-236
1.31661e-241
1.68703e-247
1.9396e-253
2.00112e-259
1.85326e-265
1.54127e-271
1.15159e-277
7.73368e-284
4.67001e-290
2.53653e-296
0
0
0
0
0
0
0
0
0
0
0
0
0
0
0
0
0
0
0
0
0
0
0
0
0
0
1.90886e-201
3.74024e-200
9.11656e-200
9.31744e-200
8.6043e-200
7.04504e-200
5.55453e-200
3.61784e-200
2.71247e-200
1.88323e-200
1.16895e-200
6.57107e-201
2.6445e-201
1.2729e-201
3.4282e-202
4.70211e-203
1.68238e-204
2.95637e-209
6.19939e-219
1.40744e-214
8.58353e-209
5.17486e-203
3.18323e-197
2.01426e-191
1.27252e-185
7.60122e-180
4.0623e-174
1.85551e-168
6.96545e-163
2.04782e-157
4.09602e-152
1.74561e-147
9.35196e-143
3.69761e-138
5.68326e-134
2.69693e-131
1.34341e-128
6.15257e-125
6.42168e-124
2.45882e-122
6.00685e-126
8.24468e-130
7.99354e-129
3.23474e-127
7.1946e-130
3.80475e-134
9.70706e-139
1.58364e-143
1.86043e-148
1.68276e-153
1.22243e-158
7.37377e-164
3.90182e-169
1.8351e-174
7.68887e-180
2.88087e-185
9.69908e-191
2.94751e-196
8.11187e-202
2.02454e-207
4.57966e-213
9.3717e-219
1.73076e-224
2.87816e-230
4.30242e-236
5.77505e-242
6.95669e-248
7.51953e-254
7.29419e-260
6.35173e-266
4.96713e-272
3.48976e-278
2.2036e-284
1.25102e-290
6.38717e-297
0
0
0
0
0
0
0
0
0
0
0
0
0
0
0
0
0
0
0
0
0
0
0
0
0
2.61361e-201
5.22803e-200
1.02419e-199
1.23628e-199
1.18682e-199
7.79857e-200
7.9637e-200
5.08549e-200
3.78948e-200
2.60104e-200
1.58235e-200
8.54613e-201
3.53439e-201
1.54392e-201
3.59044e-202
3.62276e-203
5.47713e-205
1.20281e-214
5.89355e-215
3.76482e-209
2.35379e-203
1.48994e-197
9.72992e-192
6.45655e-186
4.16296e-180
2.47828e-174
1.30832e-168
5.97563e-163
2.34328e-157
7.90027e-152
1.58995e-146
5.82816e-142
2.44583e-137
7.74248e-133
9.62471e-129
3.65518e-126
1.43635e-123
6.0408e-120
5.93657e-119
2.32713e-117
6.11092e-121
8.44568e-125
8.25699e-124
3.60184e-122
8.92648e-125
5.04836e-129
1.37126e-133
2.37196e-138
2.94336e-143
2.80269e-148
2.13736e-153
1.34817e-158
7.23287e-164
3.47638e-169
1.49731e-174
5.78558e-180
2.01195e-185
6.32107e-191
1.80006e-196
4.65471e-202
1.09296e-207
2.32666e-213
4.47908e-219
7.77748e-225
1.21542e-230
1.70672e-236
2.15148e-242
2.43368e-248
2.47006e-254
2.24982e-260
1.83957e-266
1.35076e-272
8.91035e-279
5.28219e-285
2.81484e-291
1.34863e-297
0
0
0
0
0
0
0
0
0
0
0
0
0
0
0
0
0
0
0
0
0
0
0
0
3.36127e-201
7.02659e-200
1.70637e-199
1.65059e-199
1.63305e-199
1.36742e-199
8.96327e-200
7.0379e-200
5.20481e-200
3.91084e-200
2.28235e-200
1.0855e-200
5.38282e-201
1.81173e-201
3.53549e-202
2.51186e-203
9.16997e-206
4.19251e-215
1.32525e-209
8.50596e-204
5.42359e-198
3.52548e-192
2.34387e-186
1.5514e-180
9.78902e-175
5.65991e-169
2.92894e-163
1.35694e-157
5.82217e-152
2.00271e-146
3.46603e-141
1.36257e-136
4.36672e-132
1.2562e-127
1.19787e-123
3.77995e-121
1.20002e-118
4.80572e-115
4.42786e-114
1.74196e-112
4.93126e-116
6.93115e-120
6.94569e-119
3.28284e-117
9.16631e-120
5.5677e-124
1.61656e-128
2.97586e-133
3.91389e-138
3.93553e-143
3.15937e-148
2.0917e-153
1.16956e-158
5.72171e-164
2.52732e-169
1.00566e-174
3.60859e-180
1.17115e-185
3.44829e-191
9.22991e-197
2.24685e-202