/*--------------------------------*- C++ -*----------------------------------*\
| =========                 |                                                 |
| \\      /  F ield         | OpenFOAM: The Open Source CFD Toolbox           |
|  \\    /   O peration     | Version:  v2012                                 |
|   \\  /    A nd           | Website:  www.openfoam.com                      |
|    \\/     M anipulation  |                                                 |
\*---------------------------------------------------------------------------*/
FoamFile
{
    version     2.0;
    format      ascii;
    class       volScalarField;
    location    "0.0002";
    object      T;
}
// * * * * * * * * * * * * * * * * * * * * * * * * * * * * * * * * * * * * * //

dimensions      [0 0 0 1 0 0 0];


internalField   nonuniform List<scalar> 
240000
(
301.313
301.314
301.315
301.318
301.322
301.327
301.334
301.342
301.351
301.363
301.378
301.395
301.415
301.438
301.465
301.496
301.532
301.572
301.616
301.665
301.72
301.778
301.842
301.909
301.98
302.054
302.131
302.209
302.287
302.365
302.441
302.514
302.582
302.645
302.701
302.75
302.789
302.819
302.839
302.848
302.847
302.835
302.812
302.779
302.737
302.686
302.628
302.563
302.493
302.419
302.343
302.266
302.189
302.112
302.037
301.964
301.895
301.829
301.767
301.71
301.657
301.609
301.565
301.527
301.492
301.462
301.435
301.412
301.393
301.376
301.362
301.35
301.34
301.332
301.325
301.32
301.316
301.312
301.309
301.307
301.305
301.304
301.303
301.302
301.302
301.301
301.301
301.301
301.3
301.3
301.3
301.3
301.3
301.3
301.3
301.3
301.3
301.3
301.3
301.3
301.314
301.315
301.317
301.319
301.324
301.329
301.336
301.344
301.355
301.368
301.383
301.401
301.423
301.448
301.477
301.51
301.548
301.59
301.638
301.691
301.748
301.811
301.879
301.951
302.027
302.107
302.188
302.272
302.356
302.439
302.52
302.598
302.671
302.739
302.799
302.851
302.893
302.925
302.947
302.956
302.955
302.942
302.917
302.882
302.837
302.783
302.72
302.651
302.576
302.497
302.415
302.333
302.251
302.169
302.088
302.011
301.936
301.866
301.799
301.738
301.682
301.63
301.584
301.542
301.505
301.473
301.445
301.42
301.399
301.381
301.366
301.354
301.343
301.334
301.327
301.321
301.317
301.313
301.31
301.308
301.306
301.304
301.303
301.302
301.302
301.301
301.301
301.301
301.301
301.3
301.3
301.3
301.3
301.3
301.3
301.3
301.3
301.3
301.3
301.3
301.315
301.316
301.319
301.322
301.327
301.333
301.34
301.35
301.362
301.377
301.394
301.414
301.439
301.467
301.5
301.537
301.58
301.628
301.682
301.742
301.807
301.879
301.955
302.037
302.123
302.213
302.306
302.4
302.496
302.59
302.682
302.77
302.853
302.93
302.998
303.057
303.105
303.142
303.166
303.177
303.175
303.161
303.133
303.093
303.042
302.98
302.909
302.831
302.746
302.656
302.564
302.471
302.377
302.284
302.193
302.105
302.02
301.94
301.866
301.796
301.732
301.674
301.621
301.574
301.532
301.496
301.464
301.436
301.412
301.392
301.375
301.361
301.349
301.339
301.331
301.324
301.319
301.315
301.311
301.309
301.307
301.305
301.304
301.303
301.302
301.302
301.301
301.301
301.301
301.3
301.3
301.3
301.3
301.3
301.3
301.3
301.3
301.3
301.3
301.3
301.318
301.319
301.322
301.326
301.331
301.338
301.348
301.359
301.373
301.39
301.411
301.435
301.463
301.497
301.536
301.58
301.63
301.687
301.751
301.821
301.899
301.983
302.073
302.17
302.272
302.378
302.488
302.6
302.712
302.824
302.933
303.038
303.136
303.227
303.307
303.377
303.434
303.477
303.506
303.52
303.518
303.5
303.467
303.42
303.36
303.287
303.203
303.11
303.01
302.903
302.794
302.684
302.573
302.463
302.355
302.251
302.151
302.057
301.968
301.886
301.81
301.741
301.679
301.624
301.574
301.531
301.493
301.46
301.432
301.408
301.388
301.371
301.357
301.346
301.336
301.329
301.322
301.317
301.313
301.31
301.308
301.306
301.304
301.303
301.302
301.302
301.301
301.301
301.301
301.3
301.3
301.3
301.3
301.3
301.3
301.3
301.3
301.3
301.3
301.3
301.322
301.323
301.327
301.331
301.338
301.347
301.358
301.372
301.389
301.409
301.434
301.463
301.498
301.538
301.585
301.639
301.7
301.769
301.847
301.932
302.026
302.128
302.238
302.356
302.48
302.609
302.742
302.878
303.015
303.151
303.283
303.411
303.531
303.641
303.739
303.824
303.893
303.946
303.981
303.998
303.995
303.974
303.934
303.877
303.803
303.715
303.613
303.5
303.378
303.249
303.116
302.981
302.846
302.713
302.582
302.455
302.334
302.219
302.111
302.011
301.919
301.836
301.76
301.693
301.633
301.58
301.534
301.494
301.46
301.431
301.407
301.387
301.369
301.355
301.344
301.335
301.327
301.321
301.316
301.312
301.309
301.307
301.305
301.304
301.303
301.302
301.302
301.301
301.301
301.301
301.3
301.3
301.3
301.3
301.3
301.3
301.3
301.3
301.3
301.3
301.327
301.329
301.333
301.338
301.347
301.357
301.371
301.388
301.409
301.434
301.465
301.501
301.544
301.593
301.651
301.717
301.793
301.878
301.973
302.078
302.194
302.32
302.456
302.601
302.754
302.913
303.078
303.246
303.415
303.583
303.747
303.904
304.052
304.188
304.31
304.415
304.501
304.566
304.609
304.63
304.627
304.6
304.551
304.481
304.39
304.28
304.155
304.015
303.864
303.705
303.541
303.375
303.208
303.043
302.881
302.724
302.574
302.433
302.3
302.176
302.063
301.96
301.867
301.784
301.71
301.645
301.588
301.539
301.497
301.462
301.432
301.406
301.385
301.368
301.354
301.342
301.333
301.326
301.32
301.315
301.312
301.309
301.307
301.305
301.304
301.303
301.302
301.301
301.301
301.301
301.301
301.3
301.3
301.3
301.3
301.3
301.3
301.3
301.3
301.3
301.333
301.336
301.34
301.347
301.358
301.371
301.388
301.409
301.435
301.466
301.504
301.549
301.602
301.663
301.735
301.817
301.911
302.016
302.134
302.265
302.409
302.566
302.734
302.914
303.104
303.303
303.507
303.716
303.927
304.135
304.339
304.535
304.719
304.889
305.04
305.171
305.278
305.359
305.413
305.439
305.435
305.402
305.342
305.254
305.14
305.004
304.848
304.674
304.487
304.289
304.085
303.878
303.671
303.465
303.264
303.069
302.883
302.706
302.541
302.388
302.247
302.119
302.003
301.9
301.808
301.728
301.657
301.597
301.545
301.5
301.463
301.432
301.406
301.384
301.367
301.353
301.341
301.332
301.325
301.319
301.314
301.311
301.308
301.306
301.305
301.303
301.302
301.302
301.301
301.301
301.301
301.3
301.3
301.3
301.3
301.3
301.3
301.3
301.3
301.3
301.341
301.344
301.35
301.359
301.371
301.388
301.409
301.435
301.467
301.506
301.553
301.608
301.674
301.751
301.84
301.942
302.058
302.189
302.336
302.499
302.678
302.872
303.082
303.306
303.543
303.79
304.045
304.305
304.567
304.827
305.081
305.325
305.555
305.766
305.955
306.118
306.252
306.353
306.421
306.452
306.448
306.407
306.332
306.222
306.081
305.912
305.717
305.501
305.267
305.02
304.766
304.508
304.25
303.994
303.743
303.5
303.268
303.049
302.843
302.652
302.477
302.318
302.174
302.045
301.931
301.831
301.744
301.668
301.604
301.549
301.502
301.464
301.431
301.405
301.383
301.365
301.351
301.34
301.331
301.323
301.318
301.313
301.31
301.308
301.306
301.304
301.303
301.302
301.302
301.301
301.301
301.301
301.3
301.3
301.3
301.3
301.3
301.3
301.3
301.3
301.351
301.355
301.362
301.373
301.388
301.408
301.434
301.467
301.507
301.555
301.613
301.682
301.763
301.858
301.968
302.095
302.239
302.402
302.584
302.786
303.008
303.25
303.511
303.789
304.083
304.39
304.707
305.031
305.357
305.68
305.996
306.3
306.586
306.849
307.084
307.286
307.453
307.579
307.663
307.703
307.697
307.647
307.553
307.417
307.242
307.031
306.788
306.52
306.229
305.922
305.606
305.286
304.964
304.645
304.334
304.032
303.744
303.471
303.215
302.978
302.76
302.562
302.384
302.224
302.083
301.958
301.85
301.757
301.676
301.608
301.551
301.503
301.463
301.43
301.403
301.381
301.363
301.349
301.338
301.329
301.322
301.317
301.313
301.309
301.307
301.305
301.304
301.303
301.302
301.301
301.301
301.301
301.3
301.3
301.3
301.3
301.3
301.3
301.3
301.3
301.363
301.367
301.376
301.39
301.409
301.434
301.466
301.506
301.555
301.614
301.686
301.771
301.871
301.989
302.125
302.281
302.459
302.661
302.886
303.136
303.411
303.71
304.032
304.377
304.741
305.121
305.514
305.915
306.318
306.719
307.11
307.487
307.841
308.167
308.459
308.71
308.916
309.073
309.177
309.226
309.22
309.158
309.041
308.872
308.655
308.394
308.094
307.761
307.401
307.021
306.629
306.232
305.834
305.439
305.053
304.679
304.322
303.984
303.668
303.374
303.105
302.86
302.639
302.442
302.267
302.113
301.979
301.864
301.765
301.68
301.609
301.55
301.501
301.46
301.427
301.4
301.378
301.36
301.347
301.336
301.327
301.321
301.315
301.311
301.309
301.306
301.305
301.303
301.302
301.302
301.301
301.301
301.301
301.3
301.3
301.3
301.3
301.3
301.3
301.3
301.377
301.382
301.393
301.41
301.433
301.464
301.503
301.552
301.612
301.686
301.773
301.878
302.001
302.146
302.313
302.505
302.724
302.972
303.249
303.556
303.895
304.263
304.66
305.084
305.533
306.001
306.485
306.979
307.476
307.97
308.453
308.917
309.354
309.756
310.116
310.426
310.68
310.874
311.002
311.063
311.055
310.979
310.835
310.627
310.36
310.038
309.668
309.257
308.814
308.345
307.862
307.373
306.882
306.395
305.919
305.459
305.019
304.602
304.213
303.851
303.52
303.218
302.946
302.703
302.488
302.299
302.134
301.992
301.871
301.767
301.68
301.607
301.546
301.496
301.455
301.422
301.395
301.374
301.357
301.344
301.333
301.325
301.319
301.314
301.31
301.308
301.306
301.304
301.303
301.302
301.302
301.301
301.301
301.301
301.3
301.3
301.3
301.3
301.3
301.3
301.394
301.4
301.413
301.434
301.462
301.5
301.548
301.607
301.681
301.77
301.878
302.005
302.156
302.332
302.537
302.772
303.04
303.342
303.681
304.057
304.471
304.922
305.408
305.928
306.477
307.051
307.644
308.249
308.858
309.464
310.056
310.624
311.16
311.653
312.094
312.474
312.787
313.024
313.182
313.257
313.247
313.153
312.977
312.723
312.395
312.001
311.547
311.044
310.501
309.926
309.335
308.735
308.133
307.537
306.953
306.389
305.85
305.34
304.862
304.42
304.014
303.645
303.312
303.015
302.752
302.52
302.319
302.146
301.997
301.87
301.764
301.674
301.6
301.539
301.489
301.449
301.416
301.39
301.37
301.353
301.341
301.331
301.323
301.317
301.313
301.309
301.307
301.305
301.304
301.303
301.302
301.301
301.301
301.301
301.3
301.3
301.3
301.3
301.3
301.3
301.414
301.421
301.437
301.462
301.497
301.542
301.6
301.673
301.762
301.87
302
302.156
302.339
302.553
302.801
303.086
303.412
303.779
304.192
304.649
305.152
305.701
306.293
306.925
307.593
308.292
309.014
309.75
310.493
311.23
311.951
312.644
313.297
313.898
314.435
314.898
315.279
315.568
315.76
315.852
315.84
315.726
315.512
315.202
314.803
314.323
313.771
313.158
312.497
311.797
311.077
310.346
309.613
308.887
308.176
307.489
306.832
306.212
305.631
305.092
304.598
304.149
303.744
303.383
303.063
302.782
302.537
302.326
302.145
301.992
301.862
301.754
301.664
301.59
301.53
301.481
301.441
301.409
301.384
301.365
301.349
301.337
301.328
301.321
301.315
301.311
301.308
301.306
301.304
301.303
301.302
301.302
301.301
301.301
301.301
301.3
301.3
301.3
301.3
301.3
301.437
301.446
301.465
301.495
301.537
301.591
301.661
301.749
301.856
301.987
302.144
302.331
302.552
302.81
303.11
303.454
303.847
304.291
304.789
305.342
305.95
306.613
307.329
308.093
308.901
309.746
310.619
311.511
312.409
313.301
314.174
315.012
315.802
316.53
317.18
317.741
318.201
318.552
318.785
318.896
318.882
318.744
318.485
318.11
317.628
317.047
316.379
315.638
314.837
313.992
313.12
312.236
311.348
310.469
309.61
308.778
307.984
307.233
306.53
305.879
305.282
304.739
304.25
303.813
303.427
303.088
302.792
302.537
302.319
302.134
301.978
301.847
301.739
301.65
301.577
301.517
301.47
301.432
301.402
301.378
301.359
301.345
301.334
301.325
301.319
301.314
301.31
301.307
301.305
301.304
301.303
301.302
301.301
301.301
301.301
301.3
301.3
301.3
301.3
301.3
301.463
301.475
301.498
301.533
301.583
301.649
301.732
301.837
301.966
302.122
302.31
302.534
302.799
303.108
303.468
303.881
304.352
304.885
305.483
306.146
306.876
307.672
308.532
309.45
310.421
311.436
312.485
313.557
314.636
315.709
316.758
317.766
318.715
319.589
320.371
321.046
321.599
322.021
322.301
322.434
322.418
322.253
321.941
321.491
320.911
320.214
319.412
318.521
317.559
316.543
315.495
314.433
313.366
312.309
311.276
310.277
309.323
308.42
307.576
306.794
306.077
305.424
304.837
304.313
303.849
303.442
303.088
302.782
302.521
302.299
302.112
301.955
301.825
301.718
301.631
301.56
301.503
301.458
301.421
301.393
301.371
301.353
301.34
301.33
301.322
301.316
301.312
301.309
301.306
301.304
301.303
301.302
301.302
301.301
301.301
301.301
301.3
301.3
301.3
301.3
301.494
301.508
301.535
301.577
301.636
301.714
301.814
301.938
302.091
302.277
302.501
302.768
303.083
303.452
303.879
304.372
304.933
305.569
306.281
307.072
307.943
308.892
309.917
311.013
312.171
313.383
314.635
315.914
317.203
318.483
319.735
320.938
322.072
323.115
324.049
324.854
325.515
326.017
326.352
326.511
326.492
326.295
325.924
325.387
324.696
323.863
322.907
321.844
320.696
319.484
318.233
316.965
315.691
314.43
313.196
312.004
310.865
309.788
308.78
307.847
306.991
306.214
305.513
304.888
304.335
303.85
303.428
303.064
302.753
302.488
302.265
302.079
301.924
301.797
301.693
301.609
301.541
301.487
301.444
301.41
301.384
301.363
301.348
301.335
301.326
301.319
301.314
301.31
301.307
301.305
301.304
301.303
301.302
301.301
301.301
301.301
301.3
301.3
301.3
301.3
301.529
301.545
301.577
301.627
301.697
301.789
301.906
302.053
302.234
302.454
302.719
303.034
303.407
303.843
304.349
304.931
305.596
306.348
307.191
308.128
309.16
310.285
311.499
312.798
314.171
315.607
317.091
318.607
320.134
321.652
323.136
324.562
325.905
327.142
328.248
329.202
329.986
330.582
330.978
331.167
331.145
330.912
330.472
329.837
329.017
328.031
326.898
325.64
324.28
322.843
321.361
319.857
318.348
316.853
315.39
313.977
312.626
311.35
310.156
309.05
308.036
307.114
306.285
305.544
304.89
304.315
303.816
303.385
303.017
302.704
302.44
302.22
302.037
301.887
301.764
301.665
301.585
301.521
301.47
301.43
301.399
301.375
301.356
301.342
301.331
301.323
301.317
301.312
301.309
301.306
301.304
301.303
301.302
301.302
301.301
301.301
301.301
301.3
301.3
301.3
301.568
301.587
301.625
301.683
301.765
301.873
302.011
302.183
302.396
302.654
302.965
303.335
303.773
304.285
304.88
305.564
306.346
307.23
308.222
309.324
310.537
311.861
313.29
314.818
316.434
318.124
319.871
321.655
323.453
325.239
326.985
328.663
330.244
331.699
333.001
334.123
335.044
335.746
336.212
336.435
336.409
336.135
335.619
334.871
333.908
332.749
331.416
329.937
328.337
326.647
324.903
323.133
321.356
319.596
317.874
316.21
314.62
313.118
311.712
310.411
309.217
308.133
307.157
306.287
305.517
304.841
304.254
303.748
303.315
302.947
302.638
302.379
302.165
301.989
301.845
301.728
301.634
301.559
301.499
301.453
301.416
301.388
301.366
301.349
301.336
301.327
301.32
301.314
301.31
301.307
301.305
301.304
301.303
301.302
301.301
301.301
301.301
301.3
301.3
301.3
301.612
301.634
301.678
301.746
301.841
301.967
302.128
302.329
302.576
302.878
303.24
303.672
304.182
304.78
305.474
306.273
307.186
308.219
309.377
310.664
312.082
313.629
315.299
317.084
318.973
320.948
322.99
325.075
327.176
329.262
331.302
333.263
335.11
336.809
338.329
339.639
340.715
341.534
342.079
342.339
342.309
341.989
341.387
340.515
339.391
338.038
336.483
334.755
332.887
330.913
328.876
326.808
324.732
322.674
320.662
318.717
316.858
315.102
313.459
311.938
310.543
309.276
308.136
307.119
306.219
305.431
304.745
304.154
303.649
303.22
302.859
302.558
302.308
302.102
301.934
301.798
301.689
301.601
301.532
301.478
301.435
301.402
301.376
301.357
301.342
301.331
301.323
301.316
301.312
301.309
301.306
301.304
301.303
301.302
301.301
301.301
301.301
301.301
301.3
301.3
301.661
301.686
301.737
301.816
301.926
302.072
302.258
302.49
302.777
303.126
303.545
304.046
304.637
305.33
306.134
307.061
308.119
309.317
310.661
312.154
313.799
315.594
317.532
319.604
321.795
324.087
326.457
328.876
331.313
333.733
336.099
338.372
340.513
342.483
344.244
345.763
347.01
347.959
348.59
348.891
348.857
348.487
347.79
346.78
345.478
343.911
342.109
340.107
337.942
335.654
333.292
330.893
328.484
326.097
323.761
321.504
319.346
317.308
315.401
313.635
312.016
310.546
309.223
308.043
307
306.086
305.291
304.606
304.02
303.523
303.105
302.755
302.466
302.228
302.034
301.876
301.75
301.648
301.568
301.505
301.456
301.418
301.388
301.366
301.349
301.336
301.326
301.319
301.314
301.31
301.307
301.305
301.303
301.302
301.302
301.301
301.301
301.301
301.3
301.3
301.714
301.743
301.801
301.892
302.019
302.186
302.4
302.668
302.997
303.398
303.881
304.457
305.137
305.935
306.861
307.928
309.147
310.526
312.074
313.795
315.69
317.758
319.991
322.379
324.903
327.544
330.273
333.059
335.866
338.652
341.376
343.992
346.456
348.722
350.748
352.495
353.928
355.019
355.745
356.092
356.052
355.627
354.826
353.666
352.17
350.368
348.296
345.994
343.503
340.871
338.152
335.389
332.615
329.865
327.174
324.573
322.087
319.737
317.539
315.505
313.639
311.945
310.42
309.061
307.859
306.806
305.891
305.102
304.428
303.856
303.374
302.973
302.64
302.366
302.143
301.962
301.816
301.7
301.608
301.536
301.479
301.435
301.401
301.376
301.356
301.341
301.33
301.322
301.316
301.311
301.308
301.306
301.304
301.303
301.302
301.301
301.301
301.301
301.301
301.3
301.772
301.805
301.872
301.976
302.12
302.311
302.555
302.861
303.237
303.695
304.247
304.905
305.683
306.594
307.653
308.873
310.267
311.845
313.615
315.584
317.753
320.118
322.673
325.405
328.293
331.313
334.434
337.62
340.828
344.012
347.124
350.113
352.926
355.513
357.826
359.82
361.455
362.7
363.528
363.924
363.879
363.394
362.481
361.157
359.451
357.395
355.031
352.403
349.56
346.554
343.447
340.29
337.118
333.974
330.896
327.92
325.076
322.387
319.872
317.544
315.409
313.47
311.726
310.17
308.796
307.591
306.545
305.643
304.872
304.218
303.668
303.209
302.829
302.517
302.261
302.055
301.889
301.756
301.651
301.569
301.504
301.454
301.416
301.386
301.364
301.347
301.334
301.325
301.318
301.313
301.309
301.306
301.305
301.303
301.302
301.302
301.301
301.301
301.301
301.301
301.835
301.872
301.948
302.065
302.229
302.446
302.722
303.069
303.496
304.016
304.642
305.388
306.271
307.306
308.508
309.894
311.477
313.269
315.28
317.516
319.98
322.667
325.57
328.672
331.952
335.382
338.925
342.54
346.18
349.792
353.321
356.709
359.897
362.829
365.448
367.706
369.558
370.968
371.906
372.354
372.303
371.754
370.721
369.222
367.29
364.963
362.286
359.309
356.088
352.68
349.158
345.576
341.977
338.408
334.914
331.534
328.304
325.249
322.392
319.746
317.32
315.118
313.136
311.369
309.807
308.439
307.25
306.226
305.351
304.609
303.985
303.464
303.033
302.679
302.389
302.155
301.967
301.817
301.698
301.604
301.531
301.474
301.431
301.397
301.372
301.353
301.339
301.328
301.32
301.315
301.31
301.307
301.305
301.304
301.303
301.302
301.301
301.301
301.301
301.301
301.902
301.943
302.029
302.161
302.345
302.589
302.901
303.291
303.772
304.358
305.063
305.905
306.9
308.066
309.422
310.985
312.77
314.791
317.06
319.582
322.361
325.393
328.666
332.164
335.863
339.728
343.721
347.794
351.893
355.96
359.931
363.742
367.328
370.624
373.57
376.108
378.189
379.772
380.826
381.33
381.272
380.657
379.495
377.812
375.641
373.026
370.017
366.67
363.048
359.215
355.251
351.219
347.165
343.144
339.206
335.396
331.753
328.308
325.085
322.101
319.364
316.879
314.643
312.649
310.888
309.345
308.004
306.85
305.863
305.027
304.324
303.737
303.251
302.852
302.526
302.262
302.05
301.881
301.747
301.642
301.56
301.496
301.447
301.41
301.381
301.36
301.344
301.332
301.323
301.316
301.312
301.308
301.306
301.304
301.303
301.302
301.301
301.301
301.301
301.301
301.972
302.019
302.114
302.262
302.468
302.741
303.09
303.526
304.064
304.719
305.509
306.451
307.565
308.871
310.389
312.139
314.138
316.402
318.943
321.768
324.88
328.275
331.94
335.856
339.996
344.321
348.787
353.342
357.924
362.468
366.904
371.16
375.163
378.841
382.127
384.959
387.281
389.047
390.222
390.783
390.72
390.033
388.737
386.86
384.439
381.522
378.165
374.43
370.387
366.108
361.68
357.175
352.643
348.146
343.741
339.478
335.4
331.543
327.934
324.591
321.526
318.742
316.237
314.004
312.031
310.303
308.802
307.509
306.404
305.468
304.681
304.025
303.481
303.034
302.67
302.375
302.138
301.949
301.8
301.682
301.59
301.519
301.464
301.422
301.39
301.367
301.349
301.335
301.325
301.318
301.313
301.309
301.306
301.305
301.303
301.302
301.302
301.301
301.301
301.301
302.046
302.097
302.203
302.368
302.597
302.899
303.287
303.772
304.37
305.098
305.975
307.022
308.26
309.712
311.4
313.346
315.569
318.087
320.912
324.055
327.515
331.289
335.364
339.717
344.316
349.12
354.079
359.134
364.218
369.258
374.176
378.893
383.329
387.404
391.044
394.18
396.751
398.707
400.009
400.63
400.559
399.798
398.364
396.285
393.604
390.373
386.655
382.518
378.039
373.297
368.388
363.391
358.363
353.371
348.479
343.744
339.213
334.926
330.913
327.196
323.787
320.691
317.905
315.421
313.227
311.305
309.635
308.198
306.97
305.929
305.055
304.325
303.721
303.225
302.821
302.493
302.23
302.02
301.854
301.724
301.622
301.543
301.482
301.436
301.4
301.374
301.354
301.339
301.328
301.32
301.314
301.31
301.307
301.305
301.303
301.302
301.302
301.301
301.301
301.301
302.122
302.179
302.295
302.477
302.729
303.063
303.49
304.025
304.685
305.488
306.457
307.612
308.979
310.582
312.446
314.594
317.049
319.83
322.95
326.419
330.24
334.406
338.903
343.705
348.778
354.076
359.542
365.111
370.71
376.258
381.671
386.861
391.741
396.223
400.227
403.676
406.504
408.655
410.086
410.77
410.691
409.854
408.276
405.989
403.04
399.487
395.398
390.849
385.922
380.705
375.303
369.801
364.263
358.764
353.372
348.15
343.152
338.422
333.994
329.89
326.126
322.706
319.63
316.887
314.463
312.341
310.498
308.91
307.555
306.406
305.441
304.636
303.97
303.422
302.976
302.615
302.325
302.094
301.911
301.767
301.654
301.567
301.5
301.449
301.41
301.381
301.359
301.343
301.331
301.322
301.316
301.311
301.308
301.306
301.304
301.303
301.302
301.301
301.301
301.301
302.199
302.262
302.39
302.588
302.865
303.23
303.698
304.285
305.007
305.888
306.949
308.215
309.714
311.471
313.515
315.87
318.562
321.61
325.031
328.835
333.023
337.589
342.516
347.776
353.331
359.129
365.11
371.201
377.322
383.386
389.301
394.971
400.301
405.197
409.571
413.339
416.429
418.779
420.343
421.09
421.004
420.088
418.363
415.864
412.642
408.76
404.294
399.325
393.944
388.245
382.342
376.329
370.275
364.26
358.361
352.645
347.173
341.991
337.139
332.641
328.515
324.766
321.392
318.384
315.727
313.399
311.378
309.638
308.152
306.893
305.835
304.953
304.223
303.623
303.135
302.739
302.422
302.169
301.968
301.811
301.688
301.593
301.519
301.463
301.421
301.389
301.365
301.347
301.334
301.324
301.317
301.312
301.309
301.306
301.304
301.303
301.302
301.302
301.301
301.301
302.277
302.345
302.484
302.7
303.001
303.399
303.908
304.546
305.332
306.29
307.445
308.824
310.455
312.368
314.593
317.157
320.088
323.406
327.131
331.271
335.828
340.796
346.156
351.876
357.914
364.215
370.711
377.325
383.97
390.55
396.967
403.119
408.901
414.213
418.959
423.049
426.404
428.957
430.656
431.466
431.372
430.377
428.503
425.789
422.29
418.077
413.23
407.839
402.002
395.82
389.416
382.892
376.32
369.789
363.381
357.171
351.222
345.587
340.308
335.414
330.923
326.842
323.169
319.895
317.001
314.467
312.266
310.372
308.754
307.384
306.233
305.273
304.478
303.826
303.294
302.865
302.519
302.244
302.026
301.855
301.721
301.618
301.538
301.477
301.431
301.396
301.37
301.351
301.337
301.326
301.319
301.313
301.309
301.307
301.305
301.303
301.302
301.302
301.301
301.301
302.355
302.428
302.578
302.811
303.137
303.566
304.117
304.806
305.655
306.691
307.939
309.429
311.192
313.26
315.665
318.437
321.605
325.193
329.218
333.692
338.617
343.984
349.772
355.947
362.464
369.262
376.267
383.398
390.559
397.65
404.564
411.192
417.423
423.15
428.268
432.68
436.3
439.056
440.89
441.765
441.664
440.589
438.564
435.634
431.858
427.313
422.087
416.276
409.986
403.325
396.426
389.396
382.314
375.273
368.363
361.663
355.243
349.159
343.458
338.171
333.318
328.907
324.937
321.396
318.268
315.528
313.149
311.101
309.353
307.872
306.627
305.59
304.732
304.027
303.453
302.989
302.616
302.319
302.084
301.899
301.755
301.643
301.557
301.491
301.441
301.404
301.376
301.355
301.34
301.328
301.32
301.314
301.31
301.307
301.305
301.303
301.302
301.302
301.301
301.301
302.431
302.51
302.671
302.921
303.269
303.73
304.321
305.06
305.972
307.083
308.422
310.021
311.914
314.134
316.715
319.691
323.092
326.942
331.262
336.063
341.346
347.102
353.308
359.928
366.911
374.192
381.694
389.327
396.991
404.579
411.979
419.073
425.745
431.879
437.363
442.094
445.978
448.936
450.906
451.846
451.737
450.582
448.408
445.262
441.212
436.339
430.738
424.515
417.78
410.651
403.269
395.746
388.166
380.63
373.231
366.055
359.175
352.654
346.54
340.869
335.662
330.928
326.667
322.867
319.509
316.568
314.014
311.816
309.939
308.35
307.014
305.901
304.98
304.224
303.608
303.11
302.711
302.392
302.14
301.942
301.787
301.667
301.575
301.505
301.452
301.411
301.381
301.359
301.343
301.33
301.322
301.315
301.311
301.308
301.305
301.304
301.303
301.302
301.301
301.301
302.504
302.588
302.759
303.026
303.397
303.888
304.517
305.305
306.277
307.461
308.888
310.592
312.609
314.975
317.727
320.899
324.523
328.626
333.23
338.345
343.972
350.102
356.709
363.754
371.183
378.927
386.904
395.018
403.165
411.23
419.097
426.641
433.738
440.267
446.108
451.15
455.293
458.45
460.554
461.558
461.442
460.209
457.888
454.532
450.212
445.018
439.053
432.429
425.265
417.685
409.838
401.842
393.787
385.775
377.908
370.276
362.956
356.015
349.506
343.466
337.919
332.875
328.334
324.283
320.704
317.569
314.847
312.504
310.503
308.809
307.386
306.2
305.219
304.414
303.758
303.227
302.802
302.462
302.194
301.983
301.818
301.691
301.593
301.518
301.461
301.418
301.387
301.363
301.345
301.332
301.323
301.316
301.311
301.308
301.306
301.304
301.303
301.302
301.302
301.301
302.573
302.662
302.843
303.125
303.518
304.038
304.703
305.536
306.565
307.818
309.328
311.132
313.266
315.771
318.683
322.04
325.875
330.217
335.088
340.498
346.45
352.932
359.916
367.361
375.21
383.388
391.811
400.377
408.978
417.494
425.801
433.771
441.274
448.179
454.363
459.704
464.097
467.447
469.681
470.749
470.626
469.318
466.855
463.294
458.715
453.213
446.899
439.893
432.321
424.314
416.027
407.586
399.082
390.625
382.318
374.256
366.522
359.187
352.305
345.917
340.049
334.713
329.908
325.621
321.833
318.514
315.634
313.153
311.036
309.243
307.738
306.483
305.445
304.593
303.899
303.338
302.887
302.529
302.245
302.022
301.848
301.713
301.609
301.53
301.47
301.425
301.391
301.366
301.348
301.334
301.324
301.317
301.312
301.308
301.306
301.304
301.303
301.302
301.302
301.301
302.637
302.73
302.921
303.217
303.63
304.176
304.875
305.75
306.831
308.147
309.735
311.63
313.874
316.505
319.566
323.093
327.124
331.686
336.803
342.486
348.737
355.542
362.873
370.686
378.919
387.497
396.33
405.312
414.331
423.262
431.978
440.343
448.223
455.482
461.986
467.61
472.238
475.771
478.13
479.258
479.131
477.752
475.154
471.401
466.576
460.784
454.143
446.78
438.829
430.426
421.733
412.88
403.963
395.095
386.383
377.927
369.813
362.114
354.889
348.181
342.017
336.411
331.361
326.857
322.875
319.388
316.36
313.753
311.528
309.644
308.062
306.743
305.653
304.758
304.029
303.44
302.967
302.59
302.292
302.058
301.875
301.734
301.625
301.542
301.479
301.431
301.396
301.37
301.35
301.336
301.326
301.318
301.313
301.309
301.306
301.304
301.303
301.302
301.302
301.301
302.694
302.792
302.991
303.299
303.73
304.3
305.029
305.943
307.07
308.444
310.1
312.078
314.419
317.166
320.359
324.041
328.246
333.006
338.343
344.271
350.79
357.885
365.526
373.667
382.245
391.181
400.38
409.735
419.128
428.434
437.518
446.242
454.464
462.044
468.841
474.724
479.569
483.271
485.745
486.93
486.799
485.355
482.635
478.704
473.655
467.598
460.659
452.971
444.676
435.915
426.856
417.633
408.346
399.108
390.034
381.224
372.768
364.743
357.211
350.215
343.786
337.937
332.668
327.968
323.813
320.173
317.013
314.293
311.971
310.005
308.354
306.978
305.84
304.906
304.146
303.531
303.038
302.645
302.334
302.09
301.899
301.752
301.639
301.552
301.486
301.437
301.4
301.372
301.352
301.337
301.327
301.319
301.313
301.309
301.306
301.305
301.303
301.302
301.302
301.302
302.744
302.845
303.051
303.371
303.817
304.407
305.163
306.11
307.278
308.702
310.418
312.468
314.894
317.74
321.049
324.863
329.22
334.152
339.681
345.821
352.571
359.917
367.826
376.252
385.127
394.372
403.888
413.566
423.285
432.915
442.32
451.357
459.881
467.743
474.799
480.91
485.947
489.799
492.376
493.614
493.481
491.98
489.151
485.063
479.816
473.526
466.324
458.353
449.756
440.683
431.305
421.761
412.15
402.593
393.204
384.087
375.335
367.028
359.228
351.983
345.323
339.263
333.804
328.933
324.627
320.855
317.581
314.761
312.355
310.318
308.607
307.181
306.002
305.035
304.247
303.61
303.099
302.692
302.37
302.118
301.92
301.768
301.65
301.561
301.493
301.442
301.403
301.375
301.354
301.339
301.328
301.319
301.314
301.31
301.307
301.305
301.303
301.302
301.302
301.302
302.786
302.89
303.102
303.431
303.89
304.497
305.275
306.249
307.451
308.916
310.682
312.791
315.288
318.216
321.621
325.546
330.029
335.102
340.79
347.105
354.047
361.599
369.731
378.391
387.512
397.011
406.789
416.734
426.723
436.623
446.296
455.595
464.37
472.469
479.743
486.045
491.244
495.223
497.888
499.171
499.038
497.491
494.571
490.353
484.939
478.453
471.033
462.825
453.977
444.643
435
425.188
415.31
405.487
395.836
386.464
377.466
368.924
360.903
353.45
346.599
340.365
334.747
329.735
325.304
321.422
318.052
315.15
312.674
310.578
308.817
307.35
306.137
305.142
304.331
303.676
303.151
302.732
302.401
302.141
301.938
301.781
301.66
301.568
301.498
301.446
301.406
301.377
301.356
301.34
301.328
301.32
301.314
301.31
301.307
301.305
301.303
301.302
301.302
301.302
302.818
302.924
303.141
303.477
303.946
304.567
305.361
306.357
307.585
309.082
310.887
313.043
315.594
318.586
322.066
326.076
330.656
335.839
341.649
348.1
355.189
362.902
371.204
380.044
389.355