/*--------------------------------*- C++ -*----------------------------------*\
| =========                 |                                                 |
| \\      /  F ield         | OpenFOAM: The Open Source CFD Toolbox           |
|  \\    /   O peration     | Version:  v2012                                 |
|   \\  /    A nd           | Website:  www.openfoam.com                      |
|    \\/     M anipulation  |                                                 |
\*---------------------------------------------------------------------------*/
FoamFile
{
    version     2.0;
    format      ascii;
    class       Cloud<passiveParticle>;
    location    "0.0002/lagrangian/DTRMCloud";
    object      coordinates;
}
// * * * * * * * * * * * * * * * * * * * * * * * * * * * * * * * * * * * * * //

1500
(
(2.22045e-16 0.771603 0.173242 0.055155) 166040 493762 2
(2.22045e-16 0.795117 0.200501 0.00438147) 166040 493762 2
(2.22045e-16 0.775401 0.0464612 0.178138) 166040 493762 1
(2.22045e-16 0.754845 0.0965711 0.148583) 166040 493762 1
(2.22045e-16 0.738156 0.145158 0.116686) 166040 493762 1
(2.22045e-16 0.725596 0.191456 0.0829479) 166040 493762 1
(2.22045e-16 0.717364 0.234734 0.047902) 166040 493762 1
(2.22045e-16 0.713589 0.274311 0.0121005) 166040 493762 1
(1.11022e-16 0.0238917 0.285669 0.690439) 165940 493463 2
(1.11022e-16 0.0595072 0.280422 0.66007) 165940 493463 2
(1.11022e-16 0.0941842 0.270753 0.635063) 165940 493463 2
(1.11022e-16 0.127376 0.256813 0.615811) 165940 493463 2
(1.11022e-16 0.158559 0.238824 0.602617) 165940 493463 2
(1.11022e-16 0.187241 0.217068 0.595691) 165940 493463 2
(1.11022e-16 0.21297 0.191889 0.595141) 165940 493463 2
(1.11022e-16 0.235341 0.163684 0.600975) 165940 493463 2
(1.11022e-16 0.254 0.132897 0.613103) 165940 493463 2
(1.11022e-16 0.268654 0.100014 0.631332) 165940 493463 2
(1.11022e-16 0.279071 0.0655543 0.655375) 165940 493463 2
(1.11022e-16 0.285086 0.0300606 0.684853) 165940 493463 2
(0 0.00590725 0.280699 0.713394) 165939 493460 1
(0 0.0417819 0.241824 0.716395) 165939 493460 1
(0 0.0769976 0.199135 0.723868) 165939 493460 1
(0 0.110999 0.153306 0.735695) 165939 493460 1
(0 0.14325 0.105059 0.751691) 165939 493460 1
(0 0.173242 0.055155 0.771603) 165939 493460 1
(0 0.200501 0.00438147 0.795117) 165939 493460 1
(2.22045e-16 0.178138 0.775401 0.0464612) 165939 493460 2
(2.22045e-16 0.148583 0.754845 0.0965711) 165939 493460 2
(2.22045e-16 0.116686 0.738156 0.145158) 165939 493460 2
(2.22045e-16 0.0829479 0.725596 0.191456) 165939 493460 2
(2.22045e-16 0.047902 0.717364 0.234734) 165939 493460 2
(2.22045e-16 0.0121005 0.713589 0.274311) 165939 493460 2
(1.11022e-16 0.285669 0.690439 0.0238917) 166039 493759 1
(1.11022e-16 0.280422 0.66007 0.0595072) 166039 493759 1
(1.11022e-16 0.270753 0.635063 0.0941842) 166039 493759 1
(1.11022e-16 0.256813 0.615811 0.127376) 166039 493759 1
(1.11022e-16 0.238824 0.602617 0.158559) 166039 493759 1
(1.11022e-16 0.217068 0.595691 0.187241) 166039 493759 1
(1.11022e-16 0.191889 0.595141 0.21297) 166039 493759 1
(1.11022e-16 0.163684 0.600975 0.235341) 166039 493759 1
(1.11022e-16 0.132897 0.613103 0.254) 166039 493759 1
(1.11022e-16 0.100014 0.631332 0.268654) 166039 493759 1
(1.11022e-16 0.0655543 0.655375 0.279071) 166039 493759 1
(1.11022e-16 0.0300606 0.684853 0.285086) 166039 493759 1
(2.22045e-16 0.713394 0.00590725 0.280699) 166040 493762 2
(2.22045e-16 0.716395 0.0417819 0.241824) 166040 493762 2
(2.22045e-16 0.723868 0.0769976 0.199135) 166040 493762 2
(2.22045e-16 0.735695 0.110999 0.153306) 166040 493762 2
(2.22045e-16 0.751691 0.14325 0.105059) 166040 493762 2
(2.22045e-16 0.31481 0.519725 0.165465) 166040 493762 2
(2.22045e-16 0.385351 0.601504 0.0131444) 166040 493762 2
(2.22045e-16 0.326203 0.139384 0.534413) 166040 493762 1
(2.22045e-16 0.264536 0.289713 0.44575) 166040 493762 1
(2.22045e-16 0.214468 0.435474 0.350057) 166040 493762 1
(2.22045e-16 0.176789 0.574367 0.248844) 166040 493762 1
(2.22045e-16 0.152092 0.704203 0.143706) 166040 493762 1
(2.22045e-16 0.140767 0.822932 0.0363016) 166040 493762 1
(1.11022e-16 0.0716752 0.857008 0.0713169) 165940 493463 2
(1.11022e-16 0.158733 0.0197885 0.821478) 165940 493463 1
(1.11022e-16 0.187741 0.0948112 0.717447) 165940 493463 1
(1.11022e-16 0.22956 0.152568 0.617872) 165940 493463 1
(1.11022e-16 0.283528 0.192148 0.524324) 165940 493463 1
(1.11022e-16 0.348796 0.212927 0.438277) 165940 493463 1
(1.11022e-16 0.424333 0.214578 0.361089) 165940 493463 1
(1.11022e-16 0.508949 0.197074 0.293977) 165940 493463 1
(1.11022e-16 0.60131 0.160692 0.237999) 165940 493463 1
(1.11022e-16 0.699957 0.106004 0.194038) 165940 493463 1
(1.11022e-16 0.803337 0.0338748 0.162788) 165940 493463 1
(1.11022e-16 0.855259 0.0901817 0.0545597) 165940 493463 2
(0 0.0177218 0.842096 0.140183) 165939 493460 1
(0 0.125346 0.725471 0.149184) 165939 493460 1
(0 0.230993 0.597405 0.171603) 165939 493460 1
(0 0.332997 0.459917 0.207086) 165939 493460 1
(0 0.42975 0.315176 0.255074) 165939 493460 1
(0 0.519725 0.165465 0.31481) 165939 493460 1
(0 0.601504 0.0131444 0.385351) 165939 493460 1
(2.22045e-16 0.534413 0.326203 0.139384) 165939 493460 2
(2.22045e-16 0.44575 0.264536 0.289713) 165939 493460 2
(2.22045e-16 0.350057 0.214468 0.435474) 165939 493460 2
(2.22045e-16 0.248844 0.176789 0.574367) 165939 493460 2
(2.22045e-16 0.143706 0.152092 0.704203) 165939 493460 2
(2.22045e-16 0.0363016 0.140767 0.822932) 165939 493460 2
(1.11022e-16 0.857008 0.0713169 0.0716752) 166039 493759 1
(1.11022e-16 0.821478 0.158733 0.0197885) 166039 493759 2
(1.11022e-16 0.717447 0.187741 0.0948112) 166039 493759 2
(1.11022e-16 0.617872 0.22956 0.152568) 166039 493759 2
(1.11022e-16 0.524324 0.283528 0.192148) 166039 493759 2
(1.11022e-16 0.438277 0.348796 0.212927) 166039 493759 2
(1.11022e-16 0.361089 0.424333 0.214578) 166039 493759 2
(1.11022e-16 0.293977 0.508949 0.197074) 166039 493759 2
(1.11022e-16 0.237999 0.60131 0.160692) 166039 493759 2
(1.11022e-16 0.194038 0.699957 0.106004) 166039 493759 2
(1.11022e-16 0.162788 0.803337 0.0338748) 166039 493759 2
(1.11022e-16 0.0901817 0.0545597 0.855259) 166039 493759 1
(2.22045e-16 0.140183 0.0177218 0.842096) 166040 493762 2
(2.22045e-16 0.149184 0.125346 0.725471) 166040 493762 2
(2.22045e-16 0.171603 0.230993 0.597405) 166040 493762 2
(2.22045e-16 0.207086 0.332997 0.459917) 166040 493762 2
(2.22045e-16 0.255074 0.42975 0.315176) 166040 493762 2
(0 0.133791 0.724225 0.141984) 166140 494061 1
(2.22045e-16 0.975586 0.00250685 0.0219074) 166141 494064 2
(0 0.109311 0.122995 0.767694) 166041 493765 2
(0 0.257083 0.225773 0.517144) 166041 493765 2
(0 0.416571 0.309219 0.27421) 166041 493765 2
(0 0.58526 0.372019 0.0427209) 166041 493765 2
(0 0.586819 0.173671 0.23951) 166041 493765 1
(0 0.567944 0.371553 0.0605027) 166041 493765 1
(2.22045e-16 0.119459 0.428347 0.452195) 165941 493466 2
(2.22045e-16 0.297536 0.402112 0.300352) 165941 493466 2
(2.22045e-16 0.470921 0.353764 0.175315) 165941 493466 2
(2.22045e-16 0.636879 0.284067 0.0790533) 165941 493466 2
(2.22045e-16 0.792794 0.19412 0.0130863) 165941 493466 2
(0 0.914659 0.0215458 0.0637949) 165941 493466 1
(2.22045e-16 0.0405552 0.024297 0.935148) 165840 493164 1
(2.22045e-16 0.176706 0.818418 0.00487626) 165840 493164 2
(2.22045e-16 0.270002 0.664484 0.0655138) 165840 493164 2
(2.22045e-16 0.34327 0.500071 0.156659) 165840 493164 2
(2.22045e-16 0.395353 0.327771 0.276875) 165840 493164 2
(2.22045e-16 0.425431 0.150303 0.424266) 165840 493164 2
(1.11022e-16 0.0295363 0.403493 0.566971) 165839 493161 1
(1.11022e-16 0.20891 0.209118 0.581973) 165839 493161 1
(1.11022e-16 0.380662 0.615012 0.00432578) 165839 493161 2
(1.11022e-16 0.321524 0.445005 0.233472) 165839 493161 2
(1.11022e-16 0.241544 0.28375 0.474706) 165839 493161 2
(1.11022e-16 0.141984 0.133791 0.724225) 165839 493161 2
(2.22045e-16 0.00250685 0.0219074 0.975586) 165838 493158 1
(1.11022e-16 0.122995 0.767694 0.109311) 165938 493457 1
(1.11022e-16 0.225773 0.517144 0.257083) 165938 493457 1
(1.11022e-16 0.309219 0.27421 0.416571) 165938 493457 1
(1.11022e-16 0.372019 0.0427209 0.58526) 165938 493457 1
(1.11022e-16 0.23951 0.586819 0.173671) 165938 493457 2
(1.11022e-16 0.0605027 0.567944 0.371553) 165938 493457 2
(0 0.428347 0.452195 0.119459) 166038 493756 1
(0 0.402112 0.300352 0.297536) 166038 493756 1
(0 0.353764 0.175315 0.470921) 166038 493756 1
(0 0.284067 0.0790533 0.636879) 166038 493756 1
(0 0.19412 0.0130863 0.792794) 166038 493756 1
(0 0.0637949 0.914659 0.0215458) 166038 493756 2
(2.22045e-16 0.935148 0.0405552 0.024297) 166139 494058 2
(2.22045e-16 0.818418 0.00487626 0.176706) 166139 494058 1
(2.22045e-16 0.664484 0.0655138 0.270002) 166139 494058 1
(2.22045e-16 0.500071 0.156659 0.34327) 166139 494058 1
(2.22045e-16 0.327771 0.276875 0.395353) 166139 494058 1
(2.22045e-16 0.150303 0.424266 0.425431) 166139 494058 1
(0 0.566971 0.0295363 0.403493) 166140 494061 2
(0 0.581973 0.20891 0.209118) 166140 494061 2
(0 0.615012 0.00432578 0.380662) 166140 494061 1
(0 0.445005 0.233472 0.321524) 166140 494061 1
(0 0.28375 0.474706 0.241544) 166140 494061 1
(2.22045e-16 0.401223 0.212692 0.386085) 166141 494064 2
(2.22045e-16 0.56582 0.40351 0.0306703) 166141 494064 2
(2.22045e-16 0.427807 0.325228 0.246965) 166141 494064 1
(2.22045e-16 0.283918 0.675998 0.0400838) 166141 494064 1
(0 0.167093 0.0161067 0.8168) 166041 493765 1
(0 0.0791737 0.340191 0.580636) 166041 493765 1
(0 0.0215471 0.643139 0.335314) 166041 493765 1
(0 0.915296 0.00487815 0.0798256) 166042 493768 2
(0 0.000314724 0.166927 0.832758) 165941 493466 1
(0 0.0370438 0.379507 0.58345) 165941 493466 1
(0 0.10473 0.554559 0.340711) 165941 493466 1
(0 0.202306 0.689325 0.108369) 165941 493466 1
(1.11022e-16 0.109911 0.671768 0.218321) 165841 493167 2
(1.11022e-16 0.310687 0.519477 0.169836) 165841 493167 2
(1.11022e-16 0.490793 0.343223 0.165984) 165841 493167 2
(1.11022e-16 0.647388 0.145785 0.206827) 165841 493167 2
(2.22045e-16 0.0697222 0.708281 0.221997) 165840 493164 1
(2.22045e-16 0.299901 0.580677 0.119422) 165840 493164 1
(2.22045e-16 0.54112 0.412374 0.0465056) 165840 493164 1
(2.22045e-16 0.789576 0.206027 0.00439661) 165840 493164 1
(2.22045e-16 0.00624057 0.958649 0.0351102) 165739 492862 2
(1.11022e-16 0.292473 0.692765 0.0147619) 165839 493161 1
(1.11022e-16 0.538983 0.393944 0.0670727) 165839 493161 1
(1.11022e-16 0.776993 0.0731397 0.149867) 165839 493161 1
(2.22045e-16 0.00274972 0.735411 0.261839) 165838 493158 1
(2.22045e-16 0.212692 0.386085 0.401223) 165838 493158 1
(2.22045e-16 0.40351 0.0306703 0.56582) 165838 493158 1
(2.22045e-16 0.246965 0.427807 0.325228) 165838 493158 2
(2.22045e-16 0.0400838 0.283918 0.675998) 165838 493158 2
(1.11022e-16 0.8168 0.167093 0.0161067) 165938 493457 2
(1.11022e-16 0.580636 0.0791737 0.340191) 165938 493457 2
(1.11022e-16 0.335314 0.0215471 0.643139) 165938 493457 2
(0 0.00487815 0.0798256 0.915296) 165937 493454 1
(0 0.832758 0.000314724 0.166927) 166038 493756 2
(0 0.58345 0.0370438 0.379507) 166038 493756 2
(0 0.340711 0.10473 0.554559) 166038 493756 2
(0 0.108369 0.202306 0.689325) 166038 493756 2
(1.11022e-16 0.671768 0.218321 0.109911) 166138 494055 1
(1.11022e-16 0.519477 0.169836 0.310687) 166138 494055 1
(1.11022e-16 0.343223 0.165984 0.490793) 166138 494055 1
(1.11022e-16 0.145785 0.206827 0.647388) 166138 494055 1
(2.22045e-16 0.221997 0.0697222 0.708281) 166139 494058 2
(2.22045e-16 0.119422 0.299901 0.580677) 166139 494058 2
(2.22045e-16 0.0465056 0.54112 0.412374) 166139 494058 2
(2.22045e-16 0.00439661 0.789576 0.206027) 166139 494058 2
(0 0.958649 0.0351102 0.00624057) 166240 494360 1
(0 0.0147619 0.292473 0.692765) 166140 494061 2
(0 0.0670727 0.538983 0.393944) 166140 494061 2
(0 0.149867 0.776993 0.0731397) 166140 494061 2
(2.22045e-16 0.261839 0.00274972 0.735411) 166141 494064 2
(0 0.440824 0.503605 0.0555709) 166241 494363 1
(2.22045e-16 0.156054 0.804512 0.0394332) 166141 494064 2
(0 0.39676 0.0213909 0.581849) 166142 494067 2
(0 0.662749 0.206391 0.13086) 166142 494067 2
(0 0.643405 0.306423 0.0501719) 166142 494067 1
(0 0.253469 0.469634 0.276898) 166042 493768 2
(0 0.456275 0.112608 0.431118) 166042 493768 1
(0 0.4223 0.468796 0.108905) 166042 493768 1
(1.11022e-16 0.215026 0.571024 0.213951) 165942 493469 2
(1.11022e-16 0.476199 0.0593655 0.464435) 165942 493469 1
(1.11022e-16 0.563224 0.284434 0.152342) 165942 493469 1
(2.22045e-16 0.146383 0.311321 0.542296) 165842 493170 2
(2.22045e-16 0.427029 0.149416 0.423555) 165842 493170 2
(0 0.0463868 0.638782 0.314831) 165841 493167 1
(0 0.272999 0.643735 0.0832662) 165841 493167 1
(2.22045e-16 0.11807 0.473152 0.408777) 165741 492868 2
(2.22045e-16 0.286004 0.196071 0.517925) 165741 492868 2
(1.11022e-16 0.0998722 0.318013 0.582115) 165740 492865 1
(1.11022e-16 0.410011 0.101624 0.488364) 165740 492865 1
(1.11022e-16 0.565776 0.270545 0.163679) 165740 492865 2
(2.22045e-16 0.0531653 0.526287 0.420548) 165739 492862 1
(2.22045e-16 0.376037 0.176412 0.447551) 165739 492862 1
(2.22045e-16 0.485192 0.307021 0.207786) 165739 492862 2
(2.22045e-16 0.378743 0.0010085 0.620249) 165739 492862 2
(0 0.234779 0.71075 0.0544711) 165738 492859 2
(0 0.0555709 0.440824 0.503605) 165738 492859 2
(2.22045e-16 0.804512 0.0394332 0.156054) 165838 493158 1
(1.11022e-16 0.0213909 0.581849 0.39676) 165837 493155 1
(1.11022e-16 0.206391 0.13086 0.662749) 165837 493155 1
(1.11022e-16 0.0501719 0.643405 0.306423) 165837 493155 2
(0 0.469634 0.276898 0.253469) 165937 493454 1
(0 0.431118 0.456275 0.112608) 165937 493454 2
(0 0.108905 0.4223 0.468796) 165937 493454 2
(1.11022e-16 0.571024 0.213951 0.215026) 166037 493753 1
(1.11022e-16 0.464435 0.476199 0.0593655) 166037 493753 2
(1.11022e-16 0.152342 0.563224 0.284434) 166037 493753 2
(2.22045e-16 0.311321 0.542296 0.146383) 166137 494052 1
(2.22045e-16 0.149416 0.423555 0.427029) 166137 494052 1
(1.11022e-16 0.314831 0.0463868 0.638782) 166138 494055 2
(1.11022e-16 0.0832662 0.272999 0.643735) 166138 494055 2
(0 0.473152 0.408777 0.11807) 166238 494354 1
(0 0.196071 0.517925 0.286004) 166238 494354 1
(2.22045e-16 0.582115 0.318013 0.0998722) 172239 494357 2
(2.22045e-16 0.488364 0.101624 0.410011) 172239 494357 2
(0 0.270545 0.163679 0.565776) 166239 494357 1
(0 0.420548 0.0531653 0.526287) 166240 494360 2
(0 0.447551 0.376037 0.176412) 166240 494360 2
(0 0.307021 0.207786 0.485192) 166240 494360 1
(0 0.0010085 0.620249 0.378743) 166240 494360 1
(0 0.71075 0.0544711 0.234779) 166241 494363 1
(0 0.094341 0.393295 0.512364) 166241 494363 1
(0 0.746289 0.205515 0.0481962) 166242 494366 2
(0 0.0404843 0.470589 0.488927) 166142 494067 2
(0 0.3033 0.0622825 0.634417) 166142 494067 1
(0 0.119718 0.596739 0.283543) 166142 494067 1
(0 0.0875728 0.0184413 0.893986) 166043 493771 2
(0 0.473079 0.108997 0.417924) 166043 493771 2
(0 0.849477 0.017417 0.133106) 166043 493771 1
(2.22045e-16 0.262809 0.142363 0.594828) 165943 493472 2
(2.22045e-16 0.654579 0.0846454 0.260775) 165943 493472 2
(2.22045e-16 0.0217185 0.0143077 0.963974) 165842 493170 1
(2.22045e-16 0.175052 0.226083 0.598866) 165842 493170 1
(2.22045e-16 0.372936 0.37121 0.255854) 165842 493170 1
(1.11022e-16 0.0596513 0.387749 0.552599) 165742 492871 2
(1.11022e-16 0.342675 0.110779 0.546547) 165742 492871 2
(2.22045e-16 0.19948 0.389272 0.411247) 165741 492868 1
(2.22045e-16 0.538135 0.25587 0.205995) 165741 492868 1
(2.22045e-16 0.899844 0.0553495 0.0448067) 165741 492868 1
(2.22045e-16 0.0697768 0.721097 0.209126) 165640 492566 2
(2.22045e-16 0.135948 0.330666 0.533386) 165640 492566 2
(0 0.0649798 0.087684 0.847336) 165639 492563 1
(2.22045e-16 0.11966 0.339941 0.540399) 171639 492563 2
(2.22045e-16 0.0374572 0.809517 0.153026) 171639 492563 2
(1.11022e-16 0.22099 0.686362 0.092648) 165738 492859 1
(1.11022e-16 0.57575 0.155646 0.268604) 165738 492859 1
(0 0.512364 0.094341 0.393295) 165738 492859 2
(2.22045e-16 0.205515 0.0481962 0.746289) 165737 492856 1
(1.11022e-16 0.470589 0.488927 0.0404843) 165837 493155 1
(1.11022e-16 0.634417 0.3033 0.0622825) 165837 493155 2
(1.11022e-16 0.283543 0.119718 0.596739) 165837 493155 2
(1.11022e-16 0.0184413 0.893986 0.0875728) 165936 493451 1
(1.11022e-16 0.108997 0.417924 0.473079) 165936 493451 1
(0 0.133106 0.849477 0.017417) 165936 493451 2
(2.22045e-16 0.142363 0.594828 0.262809) 166036 493750 1
(2.22045e-16 0.0846454 0.260775 0.654579) 166036 493750 1
(0 0.963974 0.0217185 0.0143077) 166137 494052 2
(0 0.598866 0.175052 0.226083) 166137 494052 2
(0 0.255854 0.372936 0.37121) 166137 494052 2
(1.11022e-16 0.387749 0.552599 0.0596513) 166237 494351 1
(1.11022e-16 0.110779 0.546547 0.342675) 166237 494351 1
(0 0.411247 0.19948 0.389272) 166238 494354 2
(0 0.205995 0.538135 0.25587) 166238 494354 2
(0 0.0448067 0.899844 0.0553495) 166238 494354 2
(0 0.721097 0.209126 0.0697768) 166339 494656 1
(0 0.330666 0.533386 0.135948) 166339 494656 1
(1.11022e-16 0.847336 0.0649798 0.087684) 166340 494659 2
(1.11022e-16 0.540399 0.339941 0.11966) 166340 494659 1
(1.11022e-16 0.153026 0.809517 0.0374572) 166340 494659 1
(1.11022e-16 0.092648 0.22099 0.686362) 166241 494363 2
(1.11022e-16 0.268604 0.57575 0.155646) 166241 494363 2
(0 0.0308421 0.252142 0.717015) 166242 494366 2
(0 0.336523 0.606518 0.0569591) 166242 494366 2
(0 0.0802132 0.603996 0.315791) 166242 494366 1
(0 0.0684157 0.187009 0.744575) 166143 494070 2
(0 0.483085 0.40397 0.112945) 166143 494070 2
(0 0.432751 0.488926 0.0783231) 166143 494070 1
(0 0.32573 0.0515443 0.622725) 166043 493771 1
(0 0.276655 0.566038 0.157307) 166043 493771 1
(2.22045e-16 0.286299 0.0242936 0.689408) 165943 493472 1
(2.22045e-16 0.35451 0.419084 0.226407) 165943 493472 1
(2.22045e-16 0.224395 0.519787 0.255818) 165843 493173 2
(2.22045e-16 0.655886 0.338575 0.0055385) 165843 493173 2
(0 0.0612634 0.104712 0.834024) 165743 492874 2
(1.11022e-16 0.178114 0.256019 0.565867) 165742 492871 1
(1.11022e-16 0.505443 0.263172 0.231384) 165742 492871 1
(2.22045e-16 0.059435 0.127887 0.812678) 165642 492572 2
(0 0.272341 0.0296642 0.697995) 165641 492569 1
(1.11022e-16 0.492501 0.300185 0.207314) 165641 492569 2
(2.22045e-16 0.147794 0.480124 0.372082) 165640 492566 1
(2.22045e-16 0.609213 0.0969078 0.293879) 165640 492566 1
(0 0.0767943 0.649081 0.274125) 165639 492563 1
(0 0.543165 0.143706 0.313129) 165639 492563 1
(0 0.000969178 0.588753 0.410278) 165638 492560 1
(0 0.435961 0.557012 0.0070263) 165638 492560 2
(0 0.228014 0.137751 0.634236) 165638 492560 2
(2.22045e-16 0.252142 0.717015 0.0308421) 165737 492856 1
(2.22045e-16 0.606518 0.0569591 0.336523) 165737 492856 1
(2.22045e-16 0.315791 0.0802132 0.603996) 165737 492856 2
(0 0.187009 0.744575 0.0684157) 165836 493152 1
(0 0.40397 0.112945 0.483085) 165836 493152 1
(0 0.0783231 0.432751 0.488926) 165836 493152 2
(0 0.622725 0.32573 0.0515443) 165936 493451 2
(0 0.157307 0.276655 0.566038) 165936 493451 2
(2.22045e-16 0.689408 0.286299 0.0242936) 166036 493750 2
(2.22045e-16 0.226407 0.35451 0.419084) 166036 493750 2
(1.11022e-16 0.519787 0.255818 0.224395) 166136 494049 1
(1.11022e-16 0.338575 0.0055385 0.655886) 166136 494049 1
(0 0.104712 0.834024 0.0612634) 166236 494348 1
(1.11022e-16 0.565867 0.178114 0.256019) 166237 494351 2
(1.11022e-16 0.231384 0.505443 0.263172) 166237 494351 2
(0 0.127887 0.812678 0.059435) 166337 494650 1
(0 0.697995 0.272341 0.0296642) 166338 494653 2
(1.11022e-16 0.300185 0.492501 0.207314) 172338 494653 1
(0 0.372082 0.147794 0.480124) 166339 494656 2
(0 0.293879 0.609213 0.0969078) 166339 494656 2
(1.11022e-16 0.274125 0.0767943 0.649081) 166340 494659 2
(1.11022e-16 0.313129 0.543165 0.143706) 166340 494659 2
(0 0.410278 0.000969178 0.588753) 166341 494662 2
(0 0.557012 0.0070263 0.435961) 166341 494662 1
(0 0.137751 0.634236 0.228014) 166341 494662 1
(1.11022e-16 0.401374 0.172674 0.425951) 166342 494665 1
(0 0.926757 0.00752056 0.0657221) 166343 494668 2
(1.11022e-16 0.327933 0.368985 0.303082) 166243 494369 2
(1.11022e-16 0.322682 0.448567 0.228751) 166243 494369 1
(0 0.072342 0.177371 0.750287) 166143 494070 1
(1.11022e-16 0.755781 0.116056 0.128163) 166144 494073 2
(2.22045e-16 0.281471 0.239542 0.478987) 166044 493774 2
(2.22045e-16 0.703833 0.11466 0.181508) 166044 493774 1
(1.11022e-16 0.358376 0.28504 0.356584) 165944 493475 2
(1.11022e-16 0.793665 0.0989425 0.107392) 165944 493475 1
(0 0.412763 0.061293 0.525944) 165844 493176 2
(0 0.147798 0.76284 0.0893622) 165843 493173 1
(0 0.378381 0.58236 0.039259) 165743 492874 2
(0 0.743978 0.0646374 0.191385) 165743 492874 1
(2.22045e-16 0.121666 0.0728909 0.805444) 165642 492572 1
(2.22045e-16 0.530117 0.455254 0.0146288) 165642 492572 2
(0 0.00654756 0.803459 0.189994) 165641 492569 1
(0 0.029809 0.500213 0.469978) 165541 492270 2
(1.11022e-16 0.0166855 0.169374 0.813941) 165540 492267 1
(1.11022e-16 0.276293 0.450908 0.272799) 165540 492267 2
(0 0.0886088 0.210478 0.700913) 165539 492264 1
(0 0.254082 0.373271 0.372647) 165539 492264 2
(1.11022e-16 0.141987 0.845036 0.0129773) 165538 492261 2
(0 0.664986 0.299585 0.0354291) 165638 492560 1
(1.11022e-16 0.148749 0.575882 0.275369) 165637 492557 1
(1.11022e-16 0.425951 0.401374 0.172674) 165637 492557 2
(0 0.00752056 0.0657221 0.926757) 165636 492554 1
(1.11022e-16 0.368985 0.303082 0.327933) 165736 492853 1
(1.11022e-16 0.228751 0.322682 0.448567) 165736 492853 2
(0 0.750287 0.072342 0.177371) 165836 493152 2
(1.11022e-16 0.116056 0.128163 0.755781) 165835 493149 1
(0 0.239542 0.478987 0.281471) 165935 493448 1
(2.22045e-16 0.181508 0.703833 0.11466) 165935 493448 2
(1.11022e-16 0.28504 0.356584 0.358376) 166035 493747 1
(1.11022e-16 0.107392 0.793665 0.0989425) 166035 493747 2
(0 0.061293 0.525944 0.412763) 166135 494046 1
(0 0.0893622 0.147798 0.76284) 166136 494049 2
(0 0.58236 0.039259 0.378381) 166236 494348 1
(0 0.191385 0.743978 0.0646374) 166236 494348 2
(0 0.805444 0.121666 0.0728909) 166337 494650 2
(0 0.455254 0.0146288 0.530117) 166337 494650 1
(0 0.189994 0.00654756 0.803459) 166338 494653 2
(0 0.500213 0.469978 0.029809) 166438 494952 1
(0 0.813941 0.0166855 0.169374) 166439 494955 2
(0 0.450908 0.272799 0.276293) 166439 494955 1
(0 0.700913 0.0886088 0.210478) 166440 494958 2
(0 0.373271 0.372647 0.254082) 166440 494958 1
(0 0.845036 0.0129773 0.141987) 166441 494961 1
(0 0.0354291 0.664986 0.299585) 166341 494662 2
(1.11022e-16 0.275369 0.148749 0.575882) 166342 494665 2
(1.11022e-16 0.0548906 0.0623644 0.882745) 166342 494665 1
(0 0.516992 0.408523 0.074485) 166343 494668 2
(0 0.181817 0.78984 0.0283425) 166343 494668 1
(0 0.474082 0.167627 0.358291) 166244 494372 2
(1.11022e-16 0.0163419 0.451346 0.532312) 166144 494073 2
(1.11022e-16 0.335136 0.254749 0.410115) 166144 494073 1
(2.22045e-16 0.185667 0.804814 0.00951899) 166044 493774 2
(2.22045e-16 0.13101 0.663281 0.205709) 166044 493774 1
(1.11022e-16 0.143621 0.262538 0.593841) 165944 493475 1
(0 0.0116222 0.767179 0.221198) 165844 493176 2
(0 0.397201 0.20393 0.398869) 165844 493176 1
(0 0.16539 0.365829 0.468781) 165744 492877 2
(0 0.695498 0.0600082 0.244493) 165744 492877 2
(1.11022e-16 0.183097 0.690158 0.126744) 165643 492575 2
(1.11022e-16 0.620497 0.262112 0.11739) 165643 492575 2
(1.11022e-16 0.000799649 0.782621 0.216579) 165542 492273 2
(1.11022e-16 0.318007 0.259246 0.422747) 165542 492273 2
(0 0.299759 0.267358 0.432883) 165541 492270 1
(0 0.744201 0.114423 0.141376) 165541 492270 2
(1.11022e-16 0.488971 0.357495 0.153535) 165540 492267 1
(0 0.100423 0.771875 0.127701) 165539 492264 1
(0 0.710292 0.111 0.178707) 165539 492264 1
(1.11022e-16 0.30896 0.385292 0.305748) 165538 492261 1
(1.11022e-16 0.49318 0.113016 0.393804) 165538 492261 2
(2.22045e-16 0.221248 0.564751 0.214001) 165537 492258 2
(1.11022e-16 0.882745 0.0548906 0.0623644) 165637 492557 2
(0 0.408523 0.074485 0.516992) 165636 492554 1
(0 0.0283425 0.181817 0.78984) 165636 492554 2
(0 0.167627 0.358291 0.474082) 165735 492850 1
(1.11022e-16 0.451346 0.532312 0.0163419) 165835 493149 1
(1.11022e-16 0.410115 0.335136 0.254749) 165835 493149 2
(0 0.804814 0.00951899 0.185667) 165935 493448 1
(2.22045e-16 0.205709 0.13101 0.663281) 165935 493448 2
(1.11022e-16 0.593841 0.143621 0.262538) 166035 493747 2
(0 0.767179 0.221198 0.0116222) 166135 494046 1
(2.22045e-16 0.398869 0.397201 0.20393) 166135 494046 2
(0 0.365829 0.468781 0.16539) 166235 494345 1
(0 0.0600082 0.244493 0.695498) 166235 494345 1
(1.11022e-16 0.690158 0.126744 0.183097) 166336 494647 1
(1.11022e-16 0.262112 0.11739 0.620497) 166336 494647 1
(1.11022e-16 0.782621 0.216579 0.000799649) 166437 494949 1
(1.11022e-16 0.259246 0.422747 0.318007) 166437 494949 1
(0 0.432883 0.299759 0.267358) 166438 494952 2
(0 0.114423 0.141376 0.744201) 166438 494952 1
(0 0.153535 0.488971 0.357495) 166439 494955 2
(0 0.127701 0.100423 0.771875) 166440 494958 2
(0 0.178707 0.710292 0.111) 166440 494958 2
(0 0.305748 0.30896 0.385292) 166441 494961 2
(0 0.113016 0.393804 0.49318) 166441 494961 1
(0 0.564751 0.214001 0.221248) 166442 494964 1
(1.11022e-16 0.660462 0.291593 0.0479457) 166443 494967 2
(0 0.107226 0.809526 0.0832479) 166343 494668 2
(1.11022e-16 0.615382 0.267381 0.117237) 166344 494671 2
(0 0.176915 0.657936 0.165148) 166244 494372 2
(0 0.0249666 0.758004 0.21703) 166244 494372 1
(0 0.423989 0.213671 0.362339) 166145 494076 2
(1.11022e-16 0.0898629 0.370086 0.540051) 166045 493777 2
(1.11022e-16 0.558188 0.211902 0.22991) 166045 493777 1
(2.22045e-16 0.453943 0.427717 0.11834) 165945 493478 2
(1.11022e-16 0.130637 0.328024 0.541339) 165845 493179 2
(1.11022e-16 0.7895 0.144304 0.0661958) 165845 493179 2
(1.11022e-16 0.120544 0.299598 0.579859) 165744 492877 1
(0 0.0126158 0.537656 0.449728) 165644 492578 2
(0 0.55758 0.124295 0.318126) 165644 492578 2
(0 0.0464381 0.64589 0.307672) 165543 492276 2
(0 0.471482 0.109988 0.41853) 165543 492276 2
(1.11022e-16 0.47496 0.351048 0.173992) 165542 492273 1
(0 0.0997301 0.00469465 0.895575) 165441 491971 1
(0 0.302342 0.245532 0.452127) 165441 491971 2
(0 0.416638 0.571151 0.0122116) 165440 491968 2
(1.11022e-16 0.112238 0.333272 0.55449) 165439 491965 1
(1.11022e-16 0.388504 0.206144 0.405353) 165439 491965 2
(0 0.246517 0.537045 0.216438) 165438 491962 2
(1.11022e-16 0.0217898 0.891018 0.0871923) 165437 491959 2
(2.22045e-16 0.717866 0.278251 0.00388334) 165537 492258 2
(1.11022e-16 0.291593 0.0479457 0.660462) 165536 492255 1
(0 0.809526 0.0832479 0.107226) 165636 492554 1
(0 0.267381 0.117237 0.615382) 165635 492551 1
(0 0.657936 0.165148 0.176915) 165735 492850 1
(2.22045e-16 0.21703 0.0249666 0.758004) 165735 492850 2
(2.22045e-16 0.213671 0.362339 0.423989) 165834 493146 1
(1.11022e-16 0.370086 0.540051 0.0898629) 165934 493445 1
(1.11022e-16 0.22991 0.558188 0.211902) 165934 493445 2
(0 0.427717 0.11834 0.453943) 166034 493744 1
(1.11022e-16 0.328024 0.541339 0.130637) 166134 494043 1
(1.11022e-16 0.144304 0.0661958 0.7895) 166134 494043 1
(1.11022e-16 0.579859 0.120544 0.299598) 166235 494345 2
(0 0.537656 0.449728 0.0126158) 166335 494644 1
(0 0.124295 0.318126 0.55758) 166335 494644 1
(0 0.64589 0.307672 0.0464381) 166436 494946 1
(0 0.109988 0.41853 0.471482) 166436 494946 1
(1.11022e-16 0.173992 0.47496 0.351048) 166437 494949 2
(1.11022e-16 0.895575 0.0997301 0.00469465) 166538 495251 2
(1.11022e-16 0.245532 0.452127 0.302342) 166538 495251 1
(2.22045e-16 0.571151 0.0122116 0.416638) 166539 495254 1
(1.11022e-16 0.55449 0.112238 0.333272) 166540 495257 2
(1.11022e-16 0.206144 0.405353 0.388504) 166540 495257 1
(2.22045e-16 0.537045 0.216438 0.246517) 166541 495260 1
(1.11022e-16 0.891018 0.0871923 0.0217898) 166542 495263 1
(0 0.278251 0.00388334 0.717866) 166442 494964 1
(1.11022e-16 0.203668 0.638076 0.158256) 166443 494967 2
(0 0.69746 0.210529 0.0920109) 166444 494970 2
(1.11022e-16 0.259106 0.716579 0.0243149) 166344 494671 2
(0 0.851755 0.0279938 0.120252) 166345 494674 1
(0 0.501279 0.04832 0.450401) 166245 494375 1
(2.22045e-16 0.237521 0.0205723 0.741907) 166145 494076 1
(2.22045e-16 0.0646413 0.929418 0.00594097) 166145 494076 1
(0 0.745889 0.0146344 0.239477) 166046 493780 2
(0 0.000944172 0.500782 0.498274) 165945 493478 1
(0 0.111131 0.13852 0.750349) 165845 493179 1
(0 0.31419 0.663678 0.0221319) 165845 493179 1
(0 0.606917 0.0679763 0.325107) 165745 492880 1
(1.11022e-16 0.329733 0.0153043 0.654963) 165645 492581 2
(0 0.441569 0.490492 0.0679384) 165644 492578 1
(1.11022e-16 0.472379 0.0296683 0.497953) 165544 492279 2
(0 0.562645 0.37952 0.0578357) 165543 492276 1
(0 0.209167 0.124842 0.665991) 165442 491974 1
(0 0.641733 0.100298 0.257969) 165442 491974 2
(0 0.62336 0.237123 0.139517) 165441 491971 1
(0 0.368728 0.618082 0.0131898) 165440 491968 1
(0 0.0187217 0.875948 0.105331) 165339 491666 2
(1.11022e-16 0.87742 0.0782944 0.0442856) 165439 491965 1
(0 0.61695 0.181832 0.201218) 165438 491962 1
(1.11022e-16 0.33098 0.219419 0.449601) 165437 491959 1
(0 0.00824917 0.206234 0.785517) 165436 491956 1
(1.11022e-16 0.638076 0.158256 0.203668) 165536 492255 1
(0 0.210529 0.0920109 0.69746) 165535 492252 1
(0 0.716579 0.0243149 0.259106) 165635 492551 1
(0 0.120252 0.851755 0.0279938) 165634 492548 2
(0 0.450401 0.501279 0.04832) 165734 492847 2
(2.22045e-16 0.741907 0.237521 0.0205723) 165834 493146 2
(2.22045e-16 0.00594097 0.0646413 0.929418) 165834 493146 2
(0 0.0146344 0.239477 0.745889) 165933 493442 1
(0 0.498274 0.000944172 0.500782) 166034 493744 2
(1.11022e-16 0.750349 0.111131 0.13852) 166134 494043 2
(1.11022e-16 0.0221319 0.31419 0.663678) 166134 494043 2
(0 0.325107 0.606917 0.0679763) 166234 494342 2
(1.11022e-16 0.0153043 0.654963 0.329733) 166334 494641 1
(0 0.0679384 0.441569 0.490492) 166335 494644 2
(0 0.0296683 0.497953 0.472379) 166435 494943 1
(0 0.0578357 0.562645 0.37952) 166436 494946 2
(0 0.665991 0.209167 0.124842) 166537 495248 2
(2.22045e-16 0.100298 0.257969 0.641733) 166537 495248 1
(1.11022e-16 0.139517 0.62336 0.237123) 166538 495251 2
(2.22045e-16 0.0131898 0.368728 0.618082) 166539 495254 2
(2.22045e-16 0.875948 0.105331 0.0187217) 166640 495556 1
(1.11022e-16 0.0442856 0.87742 0.0782944) 166540 495257 2