/*--------------------------------*- C++ -*----------------------------------*\
| =========                 |                                                 |
| \\      /  F ield         | OpenFOAM: The Open Source CFD Toolbox           |
|  \\    /   O peration     | Version:  v2012                                 |
|   \\  /    A nd           | Website:  www.openfoam.com                      |
|    \\/     M anipulation  |                                                 |
\*---------------------------------------------------------------------------*/
FoamFile
{
    version     2.0;
    format      ascii;
    class       labelField;
    location    "0.0002/lagrangian/DTRMCloud";
    object      origId;
}
// * * * * * * * * * * * * * * * * * * * * * * * * * * * * * * * * * * * * * //


1500
(
851986
851987
851988
851989
851990
851991
851992
851993
851994
851995
851996
851997
851998
851999
852000
852001
852002
852003
852004
852005
852006
852007
852008
852009
852010
852011
852012
852013
852014
852015
852016
852017
852018
852019
852020
852021
852022
852023
852024
852025
852026
852027
852028
852029
852030
852031
852032
852033
852034
852035
852036
852037
852038
852039
852040
852041
852042
852043
852044
852045
852046
852047
852048
852049
852050
852051
852052
852053
852054
852055
852056
852057
852058
852059
852060
852061
852062
852063
852064
852065
852066
852067
852068
852069
852070
852071
852072
852073
852074
852075
852076
852077
852078
852079
852080
852081
852082
852083
852084
852085
852086
852087
852088
852089
852090
852091
852092
852093
852094
852095
852096
852097
852098
852099
852100
852101
852102
852103
852104
852105
852106
852107
852108
852109
852110
852111
852112
852113
852114
852115
852116
852117
852118
852119
852120
852121
852122
852123
852124
852125
852126
852127
852128
852129
852130
852131
852132
852133
852134
852135
852136
852137
852138
852139
852140
852141
852142
852143
852144
852145
852146
852147
852148
852149
852150
852151
852152
852153
852154
852155
852156
852157
852158
852159
852160
852161
852162
852163
852164
852165
852166
852167
852168
852169
852170
852171
852172
852173
852174
852175
852176
852177
852178
852179
852180
852181
852182
852183
852184
852185
852186
852187
852188
852189
852190
852191
852192
852193
852194
852195
852196
852197
852198
852199
852200
852201
852202
852203
852204
852205
852206
852207
852208
852209
852210
852211
852212
852213
852214
852215
852216
852217
852218
852219
852220
852221
852222
852223
852224
852225
852226
852227
852228
852229
852230
852231
852232
852233
852234
852235
852236
852237
852238
852239
852240
852241
852242
852243
852244
852245
852246
852247
852248
852249
852250
852251
852252
852253
852254
852255
852256
852257
852258
852259
852260
852261
852262
852263
852264
852265
852266
852267
852268
852269
852270
852271
852272
852273
852274
852275
852276
852277
852278
852279
852280
852281
852282
852283
852284
852285
852286
852287
852288
852289
852290
852291
852292
852293
852294
852295
852296
852297
852298
852299
852300
852301
852302
852303
852304
852305
852306
852307
852308
852309
852310
852311
852312
852313
852314
852315
852316
852317
852318
852319
852320
852321
852322
852323
852324
852325
852326
852327
852328
852329
852330
852331
852332
852333
852334
852335
852336
852337
852338
852339
852340
852341
852342
852343
852344
852345
852346
852347
852348
852349
852350
852351
852352
852353
852354
852355
852356
852357
852358
852359
852360
852361
852362
852363
852364
852365
852366
852367
852368
852369
852370
852371
852372
852373
852374
852375
852376
852377
852378
852379
852380
852381
852382
852383
852384
852385
852386
852387
852388
852389
852390
852391
852392
852393
852394
852395
852396
852397
852398
852399
852400
852401
852402
852403
852404
852405
852406
852407
852408
852409
852410
852411
852412
852413
852414
852415
852416
852417
852418
852419
852420
852421
852422
852423
852424
852425
852426
852427
852428
852429
852430
852431
852432
852433
852434
852435
852436
852437
852438
852439
852440
852441
852442
852443
852444
852445
852446
852447
852448
852449
852450
852451
852452
852453
852454
852455
852456
852457
852458
852459
852460
852461
852462
852463
852464
852465
852466
852467
852468
852469
852470
852471
852472
852473
852474
852475
852476
852477
852478
852479
852480
852481
852482
852483
852484
852485
852486
852487
852488
852489
852490
852491
852492
852493
852494
852495
852496
852497
852498
852499
852500
852501
852502
852503
852504
852505
852506
852507
852508
852509
852510
852511
852512
852513
852514
852515
852516
852517
852518
852519
852520
852521
852522
852523
852524
852525
852526
852527
852528
852529
852530
852531
852532
852533
852534
852535
852536
852537
852538
852539
852540
852541
852542
852543
852544
852545
852546
852547
852548
852549
852550
852551
852552
852553
852554
852555
852556
852557
852558
852559
852560
852561
852562
852563
852564
852565
852566
852567
852568
852569
852570
852571
852572
852573
852574
852575
852576
852577
852578
852579
852580
852581
852582
852583
852584
852585
852586
852587
852588
852589
852590
852591
852592
852593
852594
852595
852596
852597
852598
852599
852600
852601
852602
852603
852604
852605
852606
852607
852608
852609
852610
852611
852612
852613
852614
852615
852616
852617
852618
852619
852620
852621
852622
852623
852624
852625
852626
852627
852628
852629
852630
852631
852632
852633
852634
852635
852636
852637
852638
852639
852640
852641
852642
852643
852644
852645
852646
852647
852648
852649
852650
852651
852652
852653
852654
852655
852656
852657
852658
852659
852660
852661
852662
852663
852664
852665
852666
852667
852668
852669
852670
852671
852672
852673
852674
852675
852676
852677
852678
852679
852680
852681
852682
852683
852684
852685
852686
852687
852688
852689
852690
852691
852692
852693
852694
852695
852696
852697
852698
852699
852700
852701
852702
852703
852704
852705
852706
852707
852708
852709
852710
852711
852712
852713
852714
852715
852716
852717
852718
852719
852720
852721
852722
852723
852724
852725
852726
852727
852728
852729
852730
852731
852732
852733
852734
852735
852736
852737
852738
852739
852740
852741
852742
852743
852744
852745
852746
852747
852748
852749
852750
852751
852752
852753
852754
852755
852756
852757
852758
852759
852760
852761
852762
852763
852764
852765
852766
852767
852768
852769
852770
852771
852772
852773
852774
852775
852776
852777
852778
852779
852780
852781
852782
852783
852784
852785
852786
852787
852788
852789
852790
852791
852792
852793
852794
852795
852796
852797
852798
852799
852800
852801
852802
852803
852804
852805
852806
852807
852808
852809
852810
852811
852812
852813
852814
852815
852816
852817
852818
852819
852820
852821
852822
852823
852824
852825
852826
852827
852828
852829
852830
852831
852832
852833
852834
852835
852836
852837
852838
852839
852840
852841
852842
852843
852844
852845
852846
852847
852848
852849
852850
852851
852852
852853
852854
852855
852856
852857
852858
852859
852860
852861
852862
852863
852864
852865
852866
852867
852868
852869
852870
852871
852872
852873
852874
852875
852876
852877
852878
852879
852880
852881
852882
852883
852884
852885
852886
852887
852888
852889
852890
852891
852892
852893
852894
852895
852896
852897
852898
852899
852900
852901
852902
852903
852904
852905
852906
852907
852908
852909
852910
852911
852912
852913
852914
852915
852916
852917
852918
852919
852920
852921
852922
852923
852924
852925
852926
852927
852928
852929
852930
852931
852932
852933
852934
852935
852936
852937
852938
852939
852940
852941
852942
852943
852944
852945
852946
852947
852948
852949
852950
852951
852952
852953
852954
852955
852956
852957
852958
852959
852960
852961
852962
852963
852964
852965
852966
852967
852968
852969
852970
852971
852972
852973
852974
852975
852976
852977
852978
852979
852980
852981
852982
852983
852984
852985
852986
852987
852988
852989
852990
852991
852992
852993
852994
852995
852996
852997
852998
852999
853000
853001
853002
853003
853004
853005
853006
853007
853008
853009
853010
853011
853012
853013
853014
853015
853016
853017
853018
853019
853020
853021
853022
853023
853024
853025
853026
853027
853028
853029
853030
853031
853032
853033
853034
853035
853036
853037
853038
853039
853040
853041
853042
853043
853044
853045
853046
853047
853048
853049
853050
853051
853052
853053
853054
853055
853056
853057
853058
853059
853060
853061
853062
853063
853064
853065
853066
853067
853068
853069
853070
853071
853072
853073
853074
853075
853076
853077
853078
853079
853080
853081
853082
853083
853084
853085
853086
853087
853088
853089
853090
853091
853092
853093
853094
853095
853096
853097
853098
853099
853100
853101
853102
853103
853104
853105
853106
853107
853108
853109
853110
853111
853112
853113
853114
853115
853116
853117
853118
853119
853120
853121
853122
853123
853124
853125
853126
853127
853128
853129
853130
853131
853132
853133
853134
853135
853136
853137
853138
853139
853140
853141
853142
853143
853144
853145
853146
853147
853148
853149
853150
853151
853152
853153
853154
853155
853156
853157
853158
853159
853160
853161
853162
853163
853164
853165
853166
853167
853168
853169
853170
853171
853172
853173
853174
853175
853176
853177
853178
853179
853180
853181
853182
853183
853184
853185
853186
853187
853188
853189
853190
853191
853192
853193
853194
853195
853196
853197
853198
853199
853200
853201
853202
853203
853204
853205
853206
853207
853208
853209
853210
853211
853212
853213
853214
853215
853216
853217
853218
853219
853220
853221
853222
853223
853224
853225
853226
853227
853228
853229
853230
853231
853232
853233
853234
853235
853236
853237
853238
853239
853240
853241
853242
853243
853244
853245
853246
853247
853248
853249
853250
853251
853252
853253
853254
853255
853256
853257
853258
853259
853260
853261
853262
853263
853264
853265
853266
853267
853268
853269
853270
853271
853272
853273
853274
853275
853276
853277
853278
853279
853280
853281
853282
853283
853284
853285
853286
853287
853288
853289
853290
853291
853292
853293
853294
853295
853296
853297
853298
853299
853300
853301
853302
853303
853304
853305
853306
853307
853308
853309
853310
853311
853312
853313
853314
853315
853316
853317
853318
853319
853320
853321
853322
853323
853324
853325
853326
853327
853328
853329
853330
853331
853332
853333
853334
853335
853336
853337
853338
853339
853340
853341
853342
853343
853344
853345
853346
87014
87015
87016
87017
87018
87019
87020
87021
87022
87023
87024
87025
87026
87027
87028
87029
87030
87031
87032
87033
87034
87035
87036
87037
87038
87039
87040
87041
87042
87043
87044
87045
87046
87047
87048
87049
87050
87051
87052
87053
87054
87055
87056
87057
87058
87059
87060
87061
87062
87063
87064
87065
87066
87067
87068
87069
87070
87071
87072
87073
87074
87075
87076
87077
87078
87079
87080
87081
87082
87083
87084
87085
87086
87087
87088
87089
87090
87091
87092
87093
87094
87095
87096
87097
87098
87099
87100
87101
87102
87103
87104
87105
87106
87107
87108
87109
87110
87111
87112
87113
87114
87115
87116
87117
87118
87119
87120
87121
87122
87123
87124
87125
87126
87127
87128
87129
87130
87131
87132
87133
87134
87135
87136
87137
87138
87139
87140
87141
87142
87143
87144
87145
87146
87147
87148
87149
87150
87151
87152
)


// ************************************************************************* //
