/*--------------------------------*- C++ -*----------------------------------*\
| =========                 |                                                 |
| \\      /  F ield         | OpenFOAM: The Open Source CFD Toolbox           |
|  \\    /   O peration     | Version:  v2012                                 |
|   \\  /    A nd           | Website:  www.openfoam.com                      |
|    \\/     M anipulation  |                                                 |
\*---------------------------------------------------------------------------*/
FoamFile
{
    version     2.0;
    format      ascii;
    class       labelField;
    location    "0.0001/lagrangian/DTRMCloud";
    object      origId;
}
// * * * * * * * * * * * * * * * * * * * * * * * * * * * * * * * * * * * * * //


1500
(
443686
443687
443688
443689
443690
443691
443692
443693
443694
443695
443696
443697
443698
443699
443700
443701
443702
443703
443704
443705
443706
443707
443708
443709
443710
443711
443712
443713
443714
443715
443716
443717
443718
443719
443720
443721
443722
443723
443724
443725
443726
443727
443728
443729
443730
443731
443732
443733
443734
443735
443736
443737
443738
443739
443740
443741
443742
443743
443744
443745
443746
443747
443748
443749
443750
443751
443752
443753
443754
443755
443756
443757
443758
443759
443760
443761
443762
443763
443764
443765
443766
443767
443768
443769
443770
443771
443772
443773
443774
443775
443776
443777
443778
443779
443780
443781
443782
443783
443784
443785
443786
443787
443788
443789
443790
443791
443792
443793
443794
443795
443796
443797
443798
443799
443800
443801
443802
443803
443804
443805
443806
443807
443808
443809
443810
443811
443812
443813
443814
443815
443816
443817
443818
443819
443820
443821
443822
443823
443824
443825
443826
443827
443828
443829
443830
443831
443832
443833
443834
443835
443836
443837
443838
443839
443840
443841
443842
443843
443844
443845
443846
443847
443848
443849
443850
443851
443852
443853
443854
443855
443856
443857
443858
443859
443860
443861
443862
443863
443864
443865
443866
443867
443868
443869
443870
443871
443872
443873
443874
443875
443876
443877
443878
443879
443880
443881
443882
443883
443884
443885
443886
443887
443888
443889
443890
443891
443892
443893
443894
443895
443896
443897
443898
443899
443900
443901
443902
443903
443904
443905
443906
443907
443908
443909
443910
443911
443912
443913
443914
443915
443916
443917
443918
443919
443920
443921
443922
443923
443924
443925
443926
443927
443928
443929
443930
443931
443932
443933
443934
443935
443936
443937
443938
443939
443940
443941
443942
443943
443944
443945
443946
443947
443948
443949
443950
443951
443952
443953
443954
443955
443956
443957
443958
443959
443960
443961
443962
443963
443964
443965
443966
443967
443968
443969
443970
443971
443972
443973
443974
443975
443976
443977
443978
443979
443980
443981
443982
443983
443984
443985
443986
443987
443988
443989
443990
443991
443992
443993
443994
443995
443996
443997
443998
443999
444000
444001
444002
444003
444004
444005
444006
444007
444008
444009
444010
444011
444012
444013
444014
444015
444016
444017
444018
444019
444020
444021
444022
444023
444024
444025
444026
444027
444028
444029
444030
444031
444032
444033
444034
444035
444036
444037
444038
444039
444040
444041
444042
444043
444044
444045
444046
444047
444048
444049
444050
444051
444052
444053
444054
444055
444056
444057
444058
444059
444060
444061
444062
444063
444064
444065
444066
444067
444068
444069
444070
444071
444072
444073
444074
444075
444076
444077
444078
444079
444080
444081
444082
444083
444084
444085
444086
444087
444088
444089
444090
444091
444092
444093
444094
444095
444096
444097
444098
444099
444100
444101
444102
444103
444104
444105
444106
444107
444108
444109
444110
444111
444112
444113
444114
444115
444116
444117
444118
444119
444120
444121
444122
444123
444124
444125
444126
444127
444128
444129
444130
444131
444132
444133
444134
444135
444136
444137
444138
444139
444140
444141
444142
444143
444144
444145
444146
444147
444148
444149
444150
444151
444152
444153
444154
444155
444156
444157
444158
444159
444160
444161
444162
444163
444164
444165
444166
444167
444168
444169
444170
444171
444172
444173
444174
444175
444176
444177
444178
444179
444180
444181
444182
444183
444184
444185
444186
444187
444188
444189
444190
444191
444192
444193
444194
444195
444196
444197
444198
444199
444200
444201
444202
444203
444204
444205
444206
444207
444208
444209
444210
444211
444212
444213
444214
444215
444216
444217
444218
444219
444220
444221
444222
444223
444224
444225
444226
444227
444228
444229
444230
444231
444232
444233
444234
444235
444236
444237
444238
444239
444240
444241
444242
444243
444244
444245
444246
444247
444248
444249
444250
444251
444252
444253
444254
444255
444256
444257
444258
444259
444260
444261
444262
444263
444264
444265
444266
444267
444268
444269
444270
444271
444272
444273
444274
444275
444276
444277
444278
444279
444280
444281
444282
444283
444284
444285
444286
444287
444288
444289
444290
444291
444292
444293
444294
444295
444296
444297
444298
444299
444300
444301
444302
444303
444304
444305
444306
444307
444308
444309
444310
444311
444312
444313
444314
444315
444316
444317
444318
444319
444320
444321
444322
444323
444324
444325
444326
444327
444328
444329
444330
444331
444332
444333
444334
444335
444336
444337
444338
444339
444340
444341
444342
444343
444344
444345
444346
444347
444348
444349
444350
444351
444352
444353
444354
444355
444356
444357
444358
444359
444360
444361
444362
444363
444364
444365
444366
444367
444368
444369
444370
444371
444372
444373
444374
444375
444376
444377
444378
444379
444380
444381
444382
444383
444384
444385
444386
444387
444388
444389
444390
444391
444392
444393
444394
444395
444396
444397
444398
444399
444400
444401
444402
444403
444404
444405
444406
444407
444408
444409
444410
444411
444412
444413
444414
444415
444416
444417
444418
444419
444420
444421
444422
444423
444424
444425
444426
444427
444428
444429
444430
444431
444432
444433
444434
444435
444436
444437
444438
444439
444440
444441
444442
444443
444444
444445
444446
444447
444448
444449
444450
444451
444452
444453
444454
444455
444456
444457
444458
444459
444460
444461
444462
444463
444464
444465
444466
444467
444468
444469
444470
444471
444472
444473
444474
444475
444476
444477
444478
444479
444480
444481
444482
444483
444484
444485
444486
444487
444488
444489
444490
444491
444492
444493
444494
444495
444496
444497
444498
444499
444500
444501
444502
444503
444504
444505
444506
444507
444508
444509
444510
444511
444512
444513
444514
444515
444516
444517
444518
444519
444520
444521
444522
444523
444524
444525
444526
444527
444528
444529
444530
444531
444532
444533
444534
444535
444536
444537
444538
444539
444540
444541
444542
444543
444544
444545
444546
444547
444548
444549
444550
444551
444552
444553
444554
444555
444556
444557
444558
444559
444560
444561
444562
444563
444564
444565
444566
444567
444568
444569
444570
444571
444572
444573
444574
444575
444576
444577
444578
444579
444580
444581
444582
444583
444584
444585
444586
444587
444588
444589
444590
444591
444592
444593
444594
444595
444596
444597
444598
444599
444600
444601
444602
444603
444604
444605
444606
444607
444608
444609
444610
444611
444612
444613
444614
444615
444616
444617
444618
444619
444620
444621
444622
444623
444624
444625
444626
444627
444628
444629
444630
444631
444632
444633
444634
444635
444636
444637
444638
444639
444640
444641
444642
444643
444644
444645
444646
444647
444648
444649
444650
444651
444652
444653
444654
444655
444656
444657
444658
444659
444660
444661
444662
444663
444664
444665
444666
444667
444668
444669
444670
444671
444672
444673
444674
444675
444676
444677
444678
444679
444680
444681
444682
444683
444684
444685
444686
444687
444688
444689
444690
444691
444692
444693
444694
444695
444696
444697
444698
444699
444700
444701
444702
444703
444704
444705
444706
444707
444708
444709
444710
444711
444712
444713
444714
444715
444716
444717
444718
444719
444720
444721
444722
444723
444724
444725
444726
444727
444728
444729
444730
444731
444732
444733
444734
444735
444736
444737
444738
444739
444740
444741
444742
444743
444744
444745
444746
444747
444748
444749
444750
444751
444752
444753
444754
444755
444756
444757
444758
444759
444760
444761
444762
444763
444764
444765
444766
444767
444768
444769
444770
444771
444772
444773
444774
444775
444776
444777
444778
444779
444780
444781
444782
444783
444784
444785
444786
444787
444788
444789
444790
444791
444792
444793
444794
444795
444796
444797
444798
444799
444800
444801
444802
444803
444804
444805
444806
444807
444808
444809
444810
444811
444812
444813
444814
444815
444816
444817
444818
444819
444820
444821
444822
444823
444824
444825
444826
444827
444828
444829
444830
444831
444832
444833
444834
444835
444836
444837
444838
444839
444840
444841
444842
444843
444844
444845
444846
444847
444848
444849
444850
444851
444852
444853
444854
444855
444856
444857
444858
444859
444860
444861
444862
444863
444864
444865
444866
444867
444868
444869
444870
444871
444872
444873
444874
444875
444876
444877
444878
444879
444880
444881
444882
444883
444884
444885
444886
444887
444888
444889
444890
444891
444892
444893
444894
444895
444896
444897
444898
444899
444900
444901
444902
444903
444904
444905
444906
444907
444908
444909
444910
444911
444912
444913
444914
444915
444916
444917
444918
444919
444920
444921
444922
444923
444924
444925
444926
444927
444928
444929
444930
444931
444932
444933
444934
444935
444936
444937
444938
444939
444940
444941
444942
444943
444944
444945
444946
444947
444948
444949
444950
444951
444952
444953
444954
444955
444956
444957
444958
444959
444960
444961
444962
444963
444964
444965
444966
444967
444968
444969
444970
444971
444972
444973
444974
444975
444976
444977
444978
444979
444980
444981
444982
444983
444984
444985
444986
444987
444988
444989
444990
444991
444992
444993
444994
444995
444996
444997
444998
444999
445000
445001
445002
445003
445004
445005
445006
445007
445008
445009
445010
445011
445012
445013
445014
445015
445016
445017
445018
445019
445020
445021
445022
445023
445024
445025
445026
445027
445028
445029
445030
445031
445032
445033
445034
445035
445036
445037
445038
445039
445040
445041
445042
445043
445044
445045
445046
45314
45315
45316
45317
45318
45319
45320
45321
45322
45323
45324
45325
45326
45327
45328
45329
45330
45331
45332
45333
45334
45335
45336
45337
45338
45339
45340
45341
45342
45343
45344
45345
45346
45347
45348
45349
45350
45351
45352
45353
45354
45355
45356
45357
45358
45359
45360
45361
45362
45363
45364
45365
45366
45367
45368
45369
45370
45371
45372
45373
45374
45375
45376
45377
45378
45379
45380
45381
45382
45383
45384
45385
45386
45387
45388
45389
45390
45391
45392
45393
45394
45395
45396
45397
45398
45399
45400
45401
45402
45403
45404
45405
45406
45407
45408
45409
45410
45411
45412
45413
45414
45415
45416
45417
45418
45419
45420
45421
45422
45423
45424
45425
45426
45427
45428
45429
45430
45431
45432
45433
45434
45435
45436
45437
45438
45439
45440
45441
45442
45443
45444
45445
45446
45447
45448
45449
45450
45451
45452
)


// ************************************************************************* //
